ITEM: TIMESTEP
0
ITEM: NUMBER OF ATOMS
9362
ITEM: BOX BOUNDS abc origin pp pp ff
813.1887 0.0 0.0 0.0
0.0 813.2238 0.0 0.0
0.0 0.0 1375.3151779248 0.0
ITEM: ATOMS id type x y z
108309 2 99.1636058318 49.3252516031 1376.0733983191
7624 2 79.6871705529 25.8051585548 1375.2203704704
91962000 2 92.6271194337 45.6835180975 1375.1613336113
198274 2 32.262581551 59.7855536394 1375.1839759744
194562 2 12.9070456248 64.3200444016 1375.1615333364
91958104 2 39.232040489 39.2018088796 1374.8812694009
91961544 2 62.2316107968 38.4796592135 1375.2621497298
104506 2 97.8416412409 12.2903078653 1374.6610898595
100906 2 64.2761475362 15.6582687828 1374.7361759762
4579 2 30.5667711985 25.577455559 1374.8680889583
10963 2 93.8982836699 15.8684579644 1374.7296718344
202366 2 64.8580323034 66.0137415405 1375.1628150172
596 2 40.7781891276 24.2690376501 1375.012872752
101272 2 58.5590158593 46.0903092783 1375.0697872188
100918 2 58.2526115706 23.6486745417 1374.9547128092
92061682 2 99.2656805419 66.0600368475 1375.0697714072
4137 2 40.5906887737 31.2202974368 1374.9221846301
91958200 2 42.0497484922 41.7411145939 1374.7780274289
205343 2 96.1767420575 62.7893093388 1374.7112328881
815 2 28.1283814837 7.3217316918 1374.9115943548
91856613 2 27.1430985218 18.4452510671 1375.0664595134
91856826 2 25.3250248759 20.4624452879 1375.1628966729
104687 2 73.647437365 47.0396471665 1375.0447611809
3755 2 36.6245461206 8.1031413327 1375.0577325144
98352 2 8.8131604194 52.1299829528 1375.2667005305
4018 2 39.2705927045 19.4983648398 1374.8870515064
198048 2 38.4596126275 60.2300180893 1375.2889591725
104745 2 86.3664335844 40.1494618177 1374.9843740372
198162 2 45.1530275234 65.0133221998 1375.185090508
91961821 2 81.4644695537 54.2844246984 1374.7942080088
7329 2 51.1952631256 14.6299846353 1375.2436930099
8109 2 71.554717254 14.4549556842 1374.4566629028
91954673 2 27.2168568838 51.7861236438 1375.0194338704
91954774 2 10.0913877254 59.7892747099 1375.2090042612
101778 2 42.2022181601 48.4951489875 1374.7730469638
92055384 2 17.7602820188 67.0040969056 1374.8343227331
91953620 2 13.6663512076 30.4681579203 1374.9911380448
2527737 2 12.6324500718 1.2545323568 1375.1627517533
91965369 2 91.4294557141 49.1985578672 1375.1824612827
3864 2 25.4307560193 5.1924205673 1374.9542273509
4415 2 55.9431533528 4.4501559097 1374.9940481306
802 2 32.5952267158 8.3561379017 1374.9316422181
92058741 2 58.3504253931 63.1312618273 1375.283436803
91860948 2 54.3120892328 7.7190040831 1375.1216373255
7428 2 79.256745663 9.0409407582 1375.0286396007
7521 2 96.2614479224 5.2015068874 1374.6468213061
885 2 11.0128849424 9.8704795266 1375.0913952376
228 2 20.0218821247 9.3171691468 1374.3707435223
569 2 22.8665712076 10.7502767184 1374.5705513327
91860672 2 45.4488474489 10.3179367193 1375.0724989246
7571 2 68.8096396836 10.5743982188 1374.6864666422
94283 2 5.7798915158 14.0401149257 1375.0207173939
7677 2 74.0271425994 11.0797082531 1375.245549657
101779 2 24.2084668843 52.0350025699 1375.1523823202
472 2 27.1371269605 15.1102614722 1375.1146205031
91860087 2 50.5024069581 4.4686937939 1375.1770369844
91954281 2 29.418288031 18.5309655806 1374.7941463648
3639 2 33.4776779757 18.2315171152 1374.8691220984
7581 2 58.3832000051 20.1979989099 1374.8869520917
92062329 2 88.5318098731 56.63956279 1374.9854483077
91864545 2 88.0462603173 19.8047720748 1375.1149610819
11683 2 94.5717225007 18.6944611989 1374.7456860629
91856376 2 29.513307312 21.9714697618 1374.7008749294
8204 2 77.5538422337 17.0780440984 1375.1327615238
7582 2 67.0013701713 23.2772929156 1374.9417538995
198166 2 46.4124794041 62.1410958207 1375.1308019252
405 2 0.8857398482 24.880967513 1374.5223122134
91965010 2 90.7425589116 29.5713425364 1375.1442909298
91954268 2 18.5772830309 25.0345488023 1374.9627658733
91857426 2 22.0245034189 26.3340397278 1374.5506183035
91954243 2 0.3763673019 31.2528470427 1375.1702583018
100814 2 37.8147416104 24.7354319822 1374.8054545815
100868 2 49.9762405925 29.1814918588 1375.1087993266
105657 2 88.0223211317 36.0834742039 1375.2839762377
91957816 2 32.8096642715 31.3723149674 1374.9453437849
93953 2 11.3229949092 12.1022286426 1375.1146113441
4194 2 65.6764486993 30.7202371122 1374.6716625575
191602 2 1.0600995272 39.0138876673 1374.61559817
104721 2 99.9002906165 36.2316858165 1375.0591427397
97354 2 17.3363416452 33.3156277499 1375.0071464789
97510 2 14.7368702632 47.5458911598 1375.1073437353
91961748 2 89.545880664 38.9704368488 1374.735814563
108371 2 99.9050398287 42.1941511811 1374.668619797
104438 2 64.4911273809 29.4815815972 1374.9455066184
91965328 2 95.3588412784 45.4929269529 1374.4734894769
91954545 2 28.0044218862 48.4469859871 1374.853625327
91958394 2 70.0561344361 49.6979546698 1374.7537322565
92051520 2 22.4980577224 51.6485564262 1375.2367131464
91961246 2 82.0890782066 58.4732406274 1375.3081097655
101699 2 49.1720723676 54.7734033647 1374.9962632292
205214 2 98.7029498018 55.3237794907 1374.69237499
4627 2 48.9512850933 20.614716407 1374.7364189317
92051482 2 19.949995634 55.915771627 1375.1201606977
91957171 2 60.1554527986 58.8557985331 1374.9606819526
92058636 2 63.3691380118 60.574559647 1374.3731144802
205474 2 93.180088937 60.0526282594 1374.776738579
194468 2 18.6410544782 61.3879502226 1375.1211448887
4476 2 42.6915613596 19.2397680928 1375.2176495308
92058185 2 73.7897851936 67.6297477129 1375.2344749112
194974 2 26.5886495981 83.9817172882 1376.4382941332
198371 2 37.0642040065 70.3370067307 1375.1923178161
194747 2 28.1074970783 80.0956192564 1375.2014908213
92339634 2 5.1420206265 120.107898942 1374.8964136881
92149021 2 21.2436057297 113.9311872647 1375.1546626059
92152216 2 31.2062769941 90.4163680478 1374.9681400654
389566 2 5.6234614847 130.0937874881 1375.2424877246
389028 2 22.8589212018 129.354889424 1375.0592509726
92249678 2 33.471653608 133.2215713554 1374.5871987317
292953 2 19.1077558008 92.4396493278 1375.1244588939
92253208 2 87.1215872738 120.7308201422 1375.1749868562
198039 2 32.968541638 74.7604073208 1374.7290193381
92148854 2 4.4738312425 110.8146569483 1374.963264815
205464 2 84.8076512757 68.4007639514 1374.9565642279
92051687 2 0.2136113491 75.0076420853 1375.0415019565
292137 2 10.7557240356 121.5024454909 1375.1128256642
92152026 2 54.4043346994 110.897074733 1375.2547637706
92054376 2 57.7737136147 83.5669975593 1375.2256739513
92253016 2 61.4363701276 121.6275794315 1375.262825716
92148279 2 8.6613595086 104.8984712167 1375.0798616189
389601 2 20.6975893332 123.3572814473 1375.0654352879
206446 2 93.3350937642 68.1992192342 1375.1705807855
296109 2 43.935324342 104.4342768939 1374.6964258042
202439 2 78.1005441041 73.5720038274 1375.1098833536
296567 2 29.9614085787 107.773885937 1375.219084909
396275 2 72.4951947768 135.4362781436 1374.445307906
198305 2 48.7078586637 78.3987054743 1375.1563953509
92055443 2 50.9409871788 76.0919091663 1375.2064422117
92148827 2 34.7299648506 93.756292356 1375.2923311881
385553 2 11.0993748973 102.8331619361 1374.7053598838
92051681 2 16.9134622865 69.4014832293 1374.6420841824
92051611 2 19.2967653291 69.5353299312 1374.6815900377
194854 2 22.8979530224 68.4816519283 1374.8219860518
92249627 2 66.0993515135 124.3614231819 1374.8286165309
201884 2 64.9194409534 79.1591569875 1375.2273229217
92148426 2 25.4204211984 111.2954447321 1374.912292047
205669 2 93.9610795672 71.2389837866 1374.6249656513
92055139 2 27.7583444271 76.8801344978 1374.5477050759
92152724 2 36.9621608546 120.6018652791 1375.2015673802
194686 2 5.9774977872 78.8497476013 1374.8037578168
92055421 2 50.3644881899 81.5739514635 1374.5577705704
92156097 2 70.0482734156 101.1672056497 1375.2463582201
92051821 2 21.3174687725 83.3112135011 1374.5167000498
302434 2 95.6187119504 84.3364300175 1374.706337974
296698 2 33.3643311486 111.8365299379 1375.1208432514
92051246 2 20.5588723208 86.5770883742 1374.7565626552
92050771 2 30.9343504431 87.1531186895 1375.0323225529
92054853 2 45.9160895455 87.5826397958 1374.9014081989
92055571 2 56.8450164696 87.3709380252 1375.1147463479
299584 2 81.2456836715 85.8739586108 1374.9245458619
291874 2 2.713450234 91.5282651771 1374.9422539432
92051924 2 6.3306193139 91.4160394679 1374.740793339
92059122 2 64.9086102447 93.5564785898 1374.7233441516
298966 2 79.1340783345 91.4993603087 1374.9136068046
92059168 2 82.3982615526 95.7385446062 1375.2306502372
295478 2 41.7416079126 97.0072557361 1374.8329570043
92152498 2 43.7596086705 96.2336472427 1374.5682766066
92156184 2 47.4124836516 94.6261464255 1374.9115188872
92059199 2 90.0971076788 96.060128442 1374.421503864
291828 2 21.3314080277 99.1747409828 1375.0053194872
92148811 2 24.5478026344 98.6234208448 1375.136577456
92155358 2 61.384220168 97.0447522986 1374.626728934
92148879 2 8.3829084635 101.0199617672 1374.5565321741
92155872 2 75.7938194378 102.6709372483 1374.987914798
291884 2 8.8685059847 108.4357467282 1375.139921355
296200 2 39.0107664835 106.4457910435 1375.0661924215
92152643 2 50.1216594472 108.4257036121 1374.8376177414
92256309 2 93.3272480817 114.1338752959 1374.6538398599
399644 2 97.534817251 115.0947155064 1374.6702253719
92155626 2 84.0859456112 109.6937185409 1375.0496945042
303552 2 101.4025843366 113.5706350995 1375.1935981249
92252495 2 76.2968393793 119.5026994788 1374.8448480512
92249436 2 34.385854108 121.6570707522 1374.9183429185
396048 2 72.1550145986 120.9720140475 1374.894830216
92249544 2 32.5103564783 124.5655403447 1374.9616771517
92256638 2 94.8702066797 123.3569975124 1374.5596630767
92248958 2 31.1598589174 127.8443422019 1374.8926803779
92252558 2 58.8279298723 126.9404071773 1374.7250664185
396228 2 82.2998940375 129.4286004017 1374.6982923963
92156013 2 73.0437691875 91.6943106047 1375.0070549802
392628 2 51.8391930331 129.0169808883 1375.1232718742
400846 2 94.6407855832 126.1698497087 1374.999866881
92246104 2 9.4708662089 131.2538073979 1374.764653475
388822 2 14.3242856649 131.6265091219 1374.8580848117
92253072 2 77.4676483753 129.8504069373 1374.642807242
399637 2 96.1428539109 131.9911569676 1374.5582536234
92148785 2 12.8921366688 107.1544971461 1375.0764481799
92057976 2 90.3528562352 80.708170897 1374.9751856175
295737 2 39.7633825621 121.3155873253 1374.9278998983
92147868 2 29.2917063753 122.9969626845 1375.2623639578
92148662 2 2.7785172634 87.682795239 1375.2208851425
92156148 2 89.5649830432 99.4886024678 1375.2656784176
92155983 2 63.3156333581 113.0375068892 1375.279286951
92249520 2 52.6810011081 113.8244216127 1375.3024234468
92253428 2 67.825213024 131.0201439987 1375.3074717716
92058955 2 67.9737912808 75.1270437715 1375.2860892359
92443940 2 30.9084826614 177.0252766517 1375.2361225728
396335 2 80.1645205051 136.9374509727 1374.9423004296
92246100 2 9.4642595605 135.8585758519 1374.7830292836
591081 2 82.6124601247 192.4624360215 1375.0964427476
498009 2 87.7653165926 167.7159394603 1375.0252744883
591253 2 55.20152769 196.6540345992 1375.1214310354
490857 2 58.1479840146 160.127039321 1374.8186404377
496814 2 95.5546590377 142.8934255856 1375.14509823
590487 2 74.2605792076 176.0215656555 1374.8701693853
92343311 2 17.6808004483 170.7507412514 1374.719591171
494179 2 60.4461189792 175.2114982043 1375.2288207231
397367 2 62.5564956107 137.3339159966 1375.107943725
580381 2 0.1643957334 164.3132504128 1374.7323436293
587082 2 49.2936147192 186.3703002986 1374.9610810131
590445 2 65.6369338669 195.1099492639 1375.0903806432
584457 2 25.3995896543 190.2657718597 1375.1492332434
92343503 2 5.1503304202 173.6039100644 1375.184135331
92349682 2 75.7010977501 156.0034565846 1375.1779430606
489709 2 53.4565216169 154.5558017063 1374.9249302347
583268 2 22.1510253779 179.8305007178 1374.9947873843
92350428 2 90.6141271348 155.4330543079 1375.1046075413
486371 2 8.1963657329 160.0999053532 1375.228294053
92440545 2 26.1212487578 200.518856643 1374.7823238093
92246251 2 31.0152469673 149.2098455183 1374.9521988965
92246224 2 9.6134962983 138.7787174201 1375.168873091
399763 2 95.9551479663 136.4656082704 1374.9307533647
493474 2 64.2650590735 148.7566623653 1375.2945043528
587581 2 65.2045150275 192.4648724397 1375.0916883216
584085 2 9.7155351832 186.1423006967 1375.1274720571
486189 2 11.4309912963 159.2453958755 1375.2463840246
583535 2 21.1070496578 199.6900603253 1374.940711144
92350524 2 71.5580594151 155.0112094648 1375.1587758073
583234 2 10.7146142212 175.7041608908 1375.0982328358
92451062 2 90.9525926301 176.3980082615 1374.8773693835
389734 2 12.6952926418 139.0185500562 1374.5609725853
389962 2 27.3973344185 137.077819997 1375.2561571661
396994 2 75.8365213343 138.0432255611 1375.18753177
389180 2 14.7126796965 144.2511613596 1375.1762106242
392747 2 58.0942718835 138.8293985397 1374.4868972748
489614 2 38.4040812633 144.1551106068 1374.959187577
92249013 2 56.4700622018 141.4064678875 1375.0043279352
392805 2 33.2586625159 146.6074878658 1374.9509100546
389398 2 42.3730156581 147.020078628 1374.9343340703
493214 2 68.4888781124 144.5622538185 1375.1323138373
92253496 2 60.4609683726 147.7671930154 1374.5633470131
92350210 2 59.7837260206 151.3020346921 1375.0748440007
396421 2 74.7270133382 148.8010901477 1374.7470861439
486110 2 20.5260271186 151.776534234 1375.1248856327
92346852 2 35.5559539641 149.6742738061 1374.6218628316
92346827 2 66.4105123476 151.4309693451 1375.2089585723
92436719 2 5.0110119199 156.2094971247 1375.1857620056
92346619 2 39.2262747118 154.7062738291 1375.1696727627
493547 2 86.9683025627 170.3292360979 1375.0254668569
392919 2 59.7530442724 157.1199776545 1374.8148861908
486766 2 4.3301454815 160.1336986855 1374.6397736853
486694 2 20.5092813435 162.1329027413 1375.0806893681
584446 2 4.6747965652 189.8722609144 1375.2940069198
494008 2 92.463287311 160.2099876944 1374.6241637012
486328 2 13.8379980372 164.2366364761 1374.3753265282
389952 2 11.4301508931 145.5957138621 1375.2460098314
587278 2 53.5609165345 191.221502775 1374.5677419326
486261 2 9.3820059292 167.6306863868 1374.3694154459
489863 2 24.1756919649 164.6904305492 1374.2831999702
486466 2 36.9571605705 167.3833877763 1374.9899861592
583306 2 38.1830515289 166.3256596195 1374.9445169709
92447457 2 70.4053173529 174.1126521845 1375.0608115662
92346406 2 44.6738732808 176.1555751619 1374.9192094672
92349566 2 71.5825689333 177.4494329859 1374.9835833482
92343524 2 5.6976734623 179.7566427021 1374.8611468556
586868 2 49.8639210732 182.2215709799 1374.5259103479
590674 2 64.4235531075 180.9875724322 1375.057822409
92451141 2 88.7191925962 181.9545033242 1374.8534837195
493794 2 97.3089453887 179.684847792 1375.1000305023
583366 2 19.4457176092 183.0939730584 1374.8456605267
583356 2 11.4924712355 182.2253643009 1374.6632856986
587078 2 41.5971004622 189.3377292191 1374.6389124317
591249 2 66.2255244595 189.217479719 1374.9577056269
591285 2 69.5495074592 189.4676472915 1374.8091623824
677754 2 8.3615377769 191.4178036917 1375.2269505169
490102 2 17.1371155361 193.5943532836 1374.4540213579
587481 2 56.4529721546 192.345150534 1374.9560186435
587272 2 58.7152776459 195.5760610731 1374.7870887018
92350628 2 67.8250638507 164.1112058906 1375.310435903
92440643 2 23.6113906234 198.9126671463 1374.1825015415
92443626 2 55.2849394249 198.826805592 1375.0970865126
92353621 2 97.7503474674 173.3504684768 1375.2791241025
590587 2 79.2384175397 187.0831614986 1375.1765563274
494553 2 80.8121335053 154.7465266123 1375.2080873457
591620 2 52.6604477309 193.7235562532 1374.8011114637
486815 2 26.5616454237 159.4179565553 1375.1469584265
587458 2 55.0807530683 180.0848647906 1375.3086451556
92343572 2 16.6895116797 174.6801358891 1375.30724335
591898 2 66.4554979817 200.2703829821 1375.2807865786
92346638 2 35.0851153798 155.0234711582 1375.2424965418
397165 2 85.1741001375 144.4357010655 1375.2221900928
389779 2 2.0220407286 146.626082207 1375.1644436631
92447559 2 73.388970706 190.4008569333 1375.0511922453
493366 2 78.1373163023 152.7132431119 1375.2786093793
486216 2 16.026085665 166.4478224963 1375.3130114226
92642204 2 81.0984721954 264.4714100232 1374.6512104827
684469 2 34.7206741645 225.8809076021 1375.019524736
680735 2 22.1560244938 230.5641270213 1374.7500264335
92544827 2 93.949369433 214.6164881943 1375.1779137048
692109 2 100.6701110079 227.8277550374 1375.3138747392
92641959 2 74.2704935937 251.2455004347 1375.2331051912
92536296 2 26.3160251614 211.9252325728 1374.9849195743
92735560 2 48.7728606721 270.7314386889 1374.8260054726
785778 2 70.4175858177 259.4679796069 1375.0825208529
92634720 2 23.997160571 233.8868277742 1375.116243614
684282 2 47.5630643159 215.5028016942 1375.0675747182
778579 2 0.4637010877 264.7980696264 1375.288301269
92642271 2 87.1024438391 261.4500880971 1375.2838866805
781677 2 42.3863379146 257.0842074902 1374.6011370721
92440673 2 24.7139880079 204.5246493118 1375.1516485111
781460 2 25.8078689459 261.9390411668 1375.2758639328
782194 2 44.3084723049 261.3019599718 1374.7495582717
781510 2 45.061089384 258.0802229988 1375.1834680454
782154 2 68.1553230921 250.8455527423 1375.2159807958
684979 2 31.0152018129 237.7351320868 1374.9841322686
680684 2 5.4277397259 226.3800554098 1375.0176661718
882116 2 88.2622632845 256.8445129017 1375.1085169248
789644 2 95.0566621339 253.712806075 1375.0956939326
687634 2 67.7083664686 203.5198337617 1374.3530574841
778174 2 23.3478101479 264.3715307051 1375.1611210231
92731918 2 18.4214073139 268.7355876312 1375.163923229
92547682 2 100.1474938395 217.6223244792 1375.0206894364
885643 2 99.2713618057 268.5059115896 1375.1237136094
680973 2 21.3036450061 237.903097531 1375.2312708237
788663 2 84.1349364693 258.3598440092 1375.3012440129
92440675 2 22.8497059981 210.2249312393 1375.112889886
680900 2 1.3544398606 250.1766453299 1375.0910541997
92537591 2 14.547891397 221.0051544815 1375.1597913828
92638411 2 52.1040826419 248.8204237092 1375.2255658523
684681 2 54.1864879323 226.4696522033 1375.1738797068
777886 2 4.9721079277 260.0981486388 1375.2552087699
782025 2 55.0151042666 245.667431509 1375.2155509829
680530 2 5.8627673979 206.4261033951 1375.1464255317
92540709 2 32.5641127768 205.3203607997 1374.9671610137
92537652 2 3.0336193421 208.6306658698 1374.7097692004
583624 2 18.7252158367 207.6613122294 1374.4898023095
92439571 2 32.6838653691 208.7824859485 1374.8222509237
92541202 2 55.2172578085 211.2628096153 1375.2765704003
92544792 2 75.6327959565 210.4040625962 1374.355006378
92444367 2 65.5030025621 212.9025845914 1374.5775902844
92638238 2 31.5614516145 245.9532223707 1375.2346232729
92541141 2 29.3336022839 212.9528940082 1375.1267100148
684154 2 47.448854699 218.5446732756 1374.9812162274
92544882 2 54.228590011 216.591134746 1374.9385537745
687781 2 75.6644412057 216.2228954804 1374.5586897183
784910 2 78.4354242071 240.6161790594 1374.6588779379
774201 2 9.885028448 220.9034011885 1374.7344565955
92634666 2 20.3376509718 223.6265205168 1374.9380866419
684849 2 32.9981561688 222.5031309012 1374.5336267218
680753 2 38.5260942733 223.5825359059 1375.2037450336
688820 2 53.510855063 224.0867096527 1375.1476028644
692049 2 96.0070639254 221.9523289288 1374.9499234356
692420 2 81.237709682 223.79590923 1374.7869563313
680872 2 26.4589331641 227.7604196604 1375.1492085837
92541129 2 29.0047802376 209.1489702942 1374.9315112664
777840 2 33.4728490156 235.885566577 1374.6549898106
781858 2 51.6274646563 237.9875752189 1374.9997241669
92634095 2 16.9242559034 240.1730757127 1374.3853146977
92728427 2 4.5976356236 244.378251572 1375.0919312644
92634082 2 9.8752493894 244.9981226092 1374.9263562882
786132 2 61.6770789554 246.1638475641 1375.103786074
92638427 2 67.0987649927 245.039515252 1374.6932047993
92642039 2 81.7417642095 246.430469951 1375.2090991677
92537438 2 1.4347472584 217.3805858607 1375.2087932337
778054 2 25.4543734243 251.9219206166 1374.7752416682
781571 2 36.4006643204 252.3999008182 1375.0526938156
777861 2 9.9480803158 256.0148350138 1374.8132034865
92638478 2 28.4620109423 254.8789613347 1374.7982129091
781461 2 37.4492751387 255.8849583883 1375.1598983567
680675 2 12.1155337299 228.5761418489 1375.2874279188
777887 2 15.2165794403 257.6680463323 1375.0525106878
92641942 2 72.5613414507 256.3520747288 1375.2418583399
788684 2 99.388840301 260.7520206465 1374.7927156285
871796 2 8.3772226862 265.4134244078 1374.7416323786
684594 2 66.3906522295 237.0203051879 1375.2262263497
878414 2 38.5206289795 264.0802816512 1374.9398323395
781787 2 61.4563465491 258.4891752575 1374.9962117389
92738708 2 63.2751749306 265.7740466465 1374.5508563752
785952 2 70.3156326466 265.1499224705 1375.1114872679
92641646 2 80.3806954866 266.5661321967 1375.1728675896
871670 2 6.3136265839 268.7490810135 1375.0034701863
684322 2 41.131637939 231.8610342311 1375.2337895782
684883 2 31.7875032025 232.9083099928 1375.0554826397
781363 2 34.0012133954 259.36150074 1375.3129546269
687875 2 67.3203371563 226.3258075348 1375.2641429812
687668 2 80.8672756048 211.5598526645 1375.3082481185
680854 2 25.1422135845 223.56484008 1375.3029366413
92548452 2 92.1693734588 209.7628177157 1375.3136754704
92836355 2 68.5652134037 313.4089214424 1375.0072283936
972371 2 8.1106069887 311.6030459178 1375.1056464529
1065825 2 1.4943894816 312.1773360912 1375.2353891781
1080757 2 98.36502153 335.9545677857 1375.2856526622
878674 2 32.4275244884 271.9779346022 1375.2447678814
975849 2 32.207816325 311.8199460727 1375.2819942114
92929862 2 32.2781990675 327.838973743 1374.878739116
875566 2 5.117556312 279.5531081413 1374.9846169987
92832616 2 31.5262148715 302.3324284693 1375.2252770919
92832881 2 49.8844297258 309.62467291 1375.2286516827
92732205 2 9.2440216025 281.4713128541 1374.9889526237
878727 2 36.5708533403 292.3544821819 1375.258883118
972658 2 22.510930609 298.4699838826 1374.5307009596
976185 2 68.5333481986 328.7672737177 1374.8940053086
975779 2 44.1475775763 305.558443023 1375.2296167972
92735945 2 36.6300857878 284.2941771782 1375.1302396979
92833103 2 34.2755644918 326.5258102311 1374.8027292025
92832732 2 27.6265692339 300.1866122745 1375.0501329143
92829521 2 9.8403096584 319.067449182 1374.8579689637
983171 2 97.9149824375 313.7151579883 1375.2640912354
92731917 2 19.690868029 287.6295937093 1374.9393600486
976408 2 59.3568691237 306.0733942707 1375.2844762463
879166 2 34.3973521954 280.4382963529 1374.7329820215
92937384 2 78.3578110284 338.1340267957 1374.8930278946
92832827 2 68.0385103731 305.4856472306 1375.1258702437
92836344 2 61.0794511538 304.6470321868 1375.2968425663
92731838 2 2.9291995339 278.0503420812 1374.8998143954
92829421 2 21.3194922186 323.7428085414 1375.2281377317
92731524 2 18.6813876834 284.1935489661 1374.8566599418
92836172 2 83.5867481382 334.3980663851 1375.2887587733
875370 2 24.0812404863 287.6694948083 1375.1719350761
92937038 2 94.2127184588 335.678812792 1374.6701230161
1066070 2 6.9568696856 329.576993124 1375.0955966309
92731653 2 16.1645243242 299.7096552517 1375.2848619851
92836524 2 71.2802417356 308.5178373397 1375.1532546446
882909 2 73.7554312627 286.4208717602 1375.2486352408
1076435 2 75.9336166381 334.1178061389 1374.9017579707
878653 2 21.2844865285 284.345238066 1375.2143743264
1072956 2 39.1464646665 333.6642900771 1374.9572847755
972496 2 15.5588600202 323.8674301838 1375.0745298933
1073080 2 30.3496728746 337.2684925879 1375.247789349
92930184 2 17.4811308559 337.3552111983 1374.8555571738
878996 2 73.6017364953 295.6498376199 1374.9711152551
874966 2 15.9707684708 273.3172548449 1375.0044371941
1076640 2 92.4272919127 325.586399863 1374.8627750684
92933568 2 64.7257209757 324.8156397437 1375.099698607
92731955 2 5.7472665623 286.8858276602 1374.8450566171
92731646 2 19.0699213376 298.650199634 1375.1184208684
92832672 2 48.3122019798 312.7049606122 1375.2370232082
92732008 2 24.4412327 273.0201807254 1374.8085408714
92735608 2 53.9859794834 271.839084145 1375.2748167409
92642324 2 64.9134891628 273.3445101062 1374.7018989393
878753 2 68.4951210942 285.4364375231 1375.2209987013
979654 2 83.3006186222 309.8688814749 1375.0097388439
879282 2 45.2572645422 275.5684266082 1374.8945578943
979477 2 62.1058239131 325.0622940787 1375.272731466
92739354 2 88.9394908202 277.0590556739 1374.5165198457
92731282 2 8.6968987636 276.9300696742 1374.9077620946
92732011 2 20.9115884168 279.5363123156 1374.6864391883
875145 2 24.4214924857 280.1043185976 1374.6633067863
969208 2 1.5033724004 279.8928447472 1374.8677600577
92732148 2 27.3369572449 279.8338020853 1374.7809070619
886069 2 98.6499984505 283.580753754 1375.0265646435
973257 2 24.4889253736 308.7032270278 1375.2472278777
875134 2 24.4398955521 284.8686690128 1374.7894489112
92731593 2 3.7095679717 287.4745671425 1374.839313414
778137 2 11.9474232318 271.2276125971 1374.4883383583
875706 2 16.625385307 290.7671696709 1374.8242845484
878818 2 39.1195156209 290.6757179037 1375.2658251045
882163 2 67.2571127831 289.2371577233 1374.8178606502
92835571 2 88.6277310302 327.8754773466 1374.9446255167
878974 2 53.85396875 293.8347536737 1375.3013375273
972130 2 4.3040431228 297.8378767408 1374.6055217618
875952 2 10.7863404861 290.709103011 1375.2072568135
92836268 2 80.1330324101 296.9686226945 1374.5824631074
975710 2 52.4722551196 299.6357782667 1374.9685143559
92731171 2 29.9786109599 299.5168806806 1374.7221636516
92930098 2 44.0445176921 337.6331153991 1375.2337814665
979474 2 65.2317293673 301.1311031866 1374.9815986977
92829213 2 13.3715091715 305.4776681674 1374.7283513683
92832331 2 40.4103222543 305.6030518658 1374.923891525
92832683 2 52.5137096796 305.8883854401 1374.6906169051
92829072 2 14.9434265979 308.7332168436 1374.7676984232
976846 2 32.8725912847 308.332241853 1374.7637718109
976197 2 53.6944168327 321.1489974843 1375.1346698977
92836427 2 95.8508594337 306.5764498432 1375.1858981225
92832811 2 52.9793068521 310.6019809492 1374.3951802382
976054 2 57.1154088404 308.6550948437 1374.5657167685
92836548 2 89.8542905267 310.1561878299 1374.7016352932
982857 2 92.1148401118 309.1246269566 1374.599399761
92836558 2 97.886252185 310.3730328087 1374.7210431054
972057 2 5.1783082711 314.526457844 1374.7759203109
972909 2 13.8218680585 314.4557870362 1374.5042104593
972466 2 39.6262686864 315.9961290454 1374.6034652075
92829278 2 1.3191638435 317.0611219714 1374.620588622
92832783 2 36.2236838999 323.628154408 1375.0456621224
975947 2 57.1008040671 318.0184415339 1374.2477691021
980083 2 62.5025826729 321.4492941777 1374.927159487
980302 2 69.7077638434 325.9233902505 1375.2157930778
92937018 2 95.8991120584 326.3453050594 1375.1036941784
92925620 2 11.9698999396 328.1806832561 1374.5716396393
92929905 2 50.4866442502 328.7764906564 1374.9718693506
92933462 2 61.2850859654 328.6600644156 1374.9156297015
1069474 2 5.3855484192 333.126832821 1374.6189095103
92829234 2 34.6530343608 300.6227666472 1375.1600078317
92926236 2 2.0048213035 334.6327490772 1374.9724471912
92930034 2 62.6650267246 331.634675075 1374.9195859097
1069356 2 9.8967690149 335.0359086095 1374.5399553638
92929838 2 34.0619911092 335.4021268594 1374.4487724745
92932882 2 68.4706124406 336.0281736135 1375.0919124828
972683 2 34.8797359342 316.3682552479 1374.5134288416
92738853 2 76.2338401835 297.2602689684 1375.2107920582
982960 2 98.7726129663 307.0934066033 1375.0708815586
975995 2 44.5253795482 323.0570900717 1375.2487490936
982940 2 80.4882997826 316.1163700741 1375.2941163681
980106 2 76.6951015593 320.4864523982 1375.3033560788
976021 2 44.362998693 326.2953751109 1375.3069895182
1271028 2 82.1222861301 401.1773095121 1374.7466574912
93128345 2 67.5252121886 405.1810484045 1375.244304287
1170158 2 31.637441324 367.3907617198 1374.8659598835
93120683 2 20.1843886514 398.9971941831 1375.2897327743
93131542 2 100.7190851557 404.8846144032 1374.9860823227
1076686 2 67.1021772537 350.1623627669 1374.7477631156
1263638 2 6.6435376626 392.1469749512 1375.0304547869
1174054 2 85.0124801165 370.8217131039 1375.1288891058
1170157 2 28.5023208202 362.5554607203 1374.6770948115
1173971 2 66.0844060562 372.2967157641 1375.0730194075
1270957 2 61.5264444491 393.3704337433 1375.1149811885
93124427 2 65.8997147101 394.8053634225 1375.1434715794
93027163 2 54.9359894212 366.1205958615 1375.2868664731
1069510 2 16.0034801909 349.4783430929 1375.2849697244
1170057 2 33.315126482 372.7626399182 1374.9299686831
1178085 2 101.5796957953 370.5259062511 1374.9728666586
1166900 2 0.9106684801 398.2872882505 1375.1250110121
92937395 2 97.3320864555 360.5207174324 1374.9405280594
92933585 2 73.3582699131 346.0259492754 1374.7537032684
1076944 2 77.9166333914 356.0185146259 1375.0214682469
93128081 2 76.5455459763 403.7039533585 1375.0649360597
93027348 2 57.6558141254 368.8418525957 1375.1243576082
1080263 2 84.4235142106 349.773416115 1375.1508378581
1271709 2 71.4019394069 406.22955707 1374.975437084
1080017 2 92.1532310193 344.5504177382 1375.1618346092
93120610 2 1.5293097635 392.5449418226 1374.937788851
1173766 2 79.5940609412 362.2009952144 1375.2174359444
1170899 2 51.3600436717 386.2448027335 1374.7521783237
1166674 2 2.925161579 364.1110280294 1375.285201766
1073650 2 28.2539734217 342.7114550184 1375.2731792259
1166566 2 17.3407644139 363.0670175897 1375.1357066078
1171246 2 35.1952386588 370.4107739714 1375.0213612042
1260470 2 6.3770409832 389.1947821172 1375.1099894753
1073706 2 51.5484615118 351.4825194324 1374.9275824475
93131828 2 97.8316537471 406.4293062522 1375.1172618032
1174066 2 100.6871343987 377.8447533659 1375.2698775568
92926548 2 28.2940891759 339.2949275252 1374.9723477184
1076769 2 62.9153019296 341.108916187 1375.2002429686
1073494 2 51.2905535172 343.7934217787 1374.484963175
1173982 2 65.8263886265 383.4308067511 1374.8111096416
1073006 2 44.2137826255 346.2282406655 1374.8463754677
1274444 2 99.4945551199 386.2131232698 1374.9521589265
92937374 2 91.807372094 347.3095871901 1374.6405190872
92933193 2 62.5969578782 348.9076215888 1374.5467949106
1077286 2 79.0433207522 348.2585605332 1374.3252799294
93034242 2 95.770593891 348.8336022903 1375.2094248948
92937300 2 99.2108528663 348.0502026498 1374.8098812061