ITEM: TIMESTEP
2000
ITEM: NUMBER OF ATOMS
10
ITEM: BOX BOUNDS pp pp pp
0.0 50.0
0.0 60.0
0.0 60.0
ITEM: ATOMS id type x y z vx vy vz fx fy fz
1 1 8.0 5.0 5.0 0.0 0.0 0.0 0.0 0.0 0.0
2 2 15.0 25.0 25.0 0.0 0.0 0.0 0.0 0.0 0.0
3 3 15.0 25.8 25.0 0.0 0.0 0.0 0.0 0.0 0.0
4 3 15.0 25.0 25.8 0.0 0.0 0.0 0.0 0.0 0.0
5 3 15.8 25.0 25.0 0.0 0.0 0.0 0.0 0.0 0.0
6 2 24.0 25.0 25.0 10.0 0.0 0.0 1.0 0.0 0.0
7 2 26.0 25.0 25.0 -10.0 0.0 0.0 -1.0 0.0 0.0
8 2 35.0 35.0 35.0 35.0 0.0 0.0 0.0 0.0 0.0
9 2 45.0 35.0 35.0 0.0 0.0 0.0 0.0 0.0 0.0
10 3 45.9 35.0 35.0 0.0 0.0 0.0 0.0 0.0 0.0
