ITEM: TIMESTEP
0
ITEM: NUMBER OF ATOMS
6
ITEM: BOX BOUNDS ff pp pp
0.0000000000000000e+00 5.0
0.0000000000000000e+00 5.0
0.0000000000000000e+00 5.0
ITEM: ATOMS id type x y z vx vy vz fx fy fz 
1 1 1.0 2.0 3.0 1.0 2.0 3.0 1.0 2.0 3.0
2 1 2.0 1.0 3.0 2.0 1.0 3.0 2.0 1.0 3.0
3 2 3.0 1.0 2.0 3.0 1.0 2.0 3.0 1.0 2.0
4 2 2.0 3.0 1.0 2.0 3.0 1.0 2.0 3.0 1.0
5 3 1.0 1.0 3.0 1.0 1.0 3.0 1.0 1.0 3.0
6 3 3.0 3.0 1.0 3.0 3.0 1.0 3.0 3.0 1.0