ITEM: TIMESTEP
0
ITEM: NUMBER OF ATOMS
5
ITEM: BOX BOUNDS pp pp ss
0.0000000000000000e+00 7.7748317648960005e+02
0.0000000000000000e+00 4.2810001373399999e+01
-3.3912530894399996e-03 4.2814177896337341e+01
ITEM: ATOMS id type x y z vx vy vz fx fy fz 
126597 2 0.0004012 42.4679 15.5624 -0.894463 3.66743 1.93005 -1.58984 0.495093 0.274242 
127505 2 0.00222761 10.0554 17.0797 1.52789 -1.98634 -5.35306 0.967963 0.766856 0.870464 
125418 2 0.0208627 41.8562 41.2031 -4.44742 3.3724 -2.16699 -1.87456 0.510016 -1.37717 
127356 3 0.025205 32.8485 34.8081 18.1629 10.1253 16.2694 -0.278573 0.528996 0.511236 
126000 3 0.0281851 12.1996 30.3276 7.55197 22.1021 -0.424595 -0.64063 0.0956306 0.457055 