ITEM: TIMESTEP
41000
ITEM: NUMBER OF ATOMS
8232
ITEM: BOX BOUNDS pp pp pp
0.0000000000000000e+00 4.3399999999999999e+01
0.0000000000000000e+00 4.3399999999999999e+01
0.0000000000000000e+00 5.5800000000000004e+01
ITEM: ATOMS id mol type x y z q 
1177 393 2 10.9187 13.8043 28.1244 -0.82 
1178 393 1 11.2586 14.7716 27.8504 0.41 
1179 393 1 11.2331 13.7694 29.0935 0.41 
1180 394 2 39.2607 32.8067 33.0331 -0.82 
1181 394 1 38.4515 32.2662 33.4695 0.41 
1182 394 1 38.9997 33.1695 32.0978 0.41 
1183 395 2 31.6177 26.4156 39.7638 -0.82 
1184 395 1 30.9663 26.3758 38.9425 0.41 
1185 395 1 32.2143 25.5602 39.6913 0.41 
1186 396 2 13.2668 5.97914 9.82133 -0.82 
1187 396 1 14.2809 5.98691 10.0114 0.41 
1188 396 1 13.164 6.99288 9.70891 0.41 
1189 397 2 35.8834 31.9648 10.493 -0.82 
1190 397 1 36.8986 32.0289 10.23 0.41 
1191 397 1 35.3581 32.7522 10.0857 0.41 
1192 398 2 36.9071 32.8616 15.0733 -0.82 
1193 398 1 36.295 32.8564 14.2279 0.41 
1194 398 1 36.3755 33.0061 15.9586 0.41 
1195 399 2 0.772596 27.009 13.418 -0.82 
1196 399 1 1.35318 27.4036 14.197 0.41 
1197 399 1 0.453108 26.0676 13.5672 0.41 
1198 400 2 21.5404 4.60732 39.5961 -0.82 
1199 400 1 21.3552 5.2613 40.3442 0.41 
1200 400 1 20.7167 4.42761 39.0551 0.41 
1201 401 2 30.7552 5.59021 22.8726 -0.82 
1202 401 1 30.0834 6.27368 22.4202 0.41 
1203 401 1 31.7456 5.76399 22.5727 0.41 
1204 402 2 43.0575 12.4436 25.0056 -0.82 
1205 402 1 42.0308 12.7269 25.0623 0.41 
1206 402 1 -0.0523956 12.1532 25.9504 0.41 
1207 403 2 26.4604 2.65252 8.91288 -0.82 
1208 403 1 26.539 3.66656 8.96775 0.41 
1209 403 1 27.3765 2.21451 9.08291 0.41 
1210 404 2 4.98059 36.0535 22.3112 -0.82 
1211 404 1 4.94912 35.877 23.3016 0.41 
1212 404 1 5.64974 35.5299 21.7017 0.41 
1213 405 2 40.2849 34.9327 12.8316 -0.82 
1214 405 1 39.8585 34.7472 13.7473 0.41 
1215 405 1 39.5248 34.7752 12.1972 0.41 
1216 406 2 21.4694 11.7465 8.62255 -0.82 
1217 406 1 21.8006 12.4901 8.08159 0.41 
1218 406 1 22.382 11.4812 8.95665 0.41 
1219 407 2 13.3703 5.37177 39.8049 -0.82 
1220 407 1 13.062 5.17654 40.7784 0.41 
1221 407 1 12.6542 6.11146 39.5511 0.41 
1222 408 2 6.02653 27.7123 14.6095 -0.82 
1223 408 1 6.5265 28.4374 15.0624 0.41 
1224 408 1 6.39941 27.988 13.6629 0.41 
1225 409 2 17.8161 25.4874 23.8172 -0.82 
1226 409 1 17.593 24.6565 23.2409 0.41 
1227 409 1 17.9299 25.1867 24.8022 0.41 
1228 410 2 7.49709 3.05121 21.8807 -0.82 
1229 410 1 6.88333 2.42497 21.3201 0.41 
1230 410 1 7.65141 4.0242 21.475 0.41 
1231 411 2 12.9238 2.28142 32.5711 -0.82 
1232 411 1 12.8835 3.31133 32.4789 0.41 
1233 411 1 13.6457 1.89916 31.9722 0.41 
1234 412 2 11.5992 10.3244 32.7721 -0.82 
1235 412 1 12.5234 10.5654 32.4681 0.41 
1236 412 1 11.5941 9.57801 33.4375 0.41 
1237 413 2 16.0157 8.28012 20.4293 -0.82 
1238 413 1 15.9839 7.27047 20.4474 0.41 
1239 413 1 16.3011 8.53962 19.4604 0.41 
1240 414 2 27.6833 38.4666 13.4581 -0.82 
1241 414 1 27.5712 38.5509 12.4302 0.41 
1242 414 1 26.7067 38.308 13.8852 0.41 
1243 415 2 24.301 6.68799 35.5028 -0.82 
1244 415 1 23.4866 6.95241 36.0957 0.41 
1245 415 1 24.4262 7.31218 34.7132 0.41 
1246 416 2 19.3869 10.2957 39.0676 -0.82 
1247 416 1 19.965 10.8671 38.4531 0.41 
1248 416 1 18.3998 10.5664 38.9777 0.41 
1249 417 2 12.9941 1.07764 15.9379 -0.82 
1250 417 1 12.7819 1.42155 16.9127 0.41 
1251 417 1 14.0284 0.984273 16.0585 0.41 
1252 418 2 7.63007 17.5383 14.1569 -0.82 
1253 418 1 8.55864 17.4657 13.7767 0.41 
1254 418 1 7.57388 17.7811 15.1977 0.41 
1255 419 2 4.03199 41.8004 9.24458 -0.82 
1256 419 1 3.16594 42.3783 9.21075 0.41 
1257 419 1 3.71519 40.8214 9.30465 0.41 
1258 420 2 41.7651 25.0891 9.54867 -0.82 
1259 420 1 40.7592 25.2076 9.33875 0.41 
1260 420 1 41.7914 24.0908 9.78471 0.41 
1261 421 2 3.45268 18.7823 28.4114 -0.82 
1262 421 1 3.29256 18.8144 27.3952 0.41 
1263 421 1 2.82144 19.5181 28.7668 0.41 
1264 422 2 43.3071 16.2729 19.8471 -0.82 
1265 422 1 0.623425 16.4557 19.1144 0.41 
1266 422 1 0.358681 16.7326 20.6759 0.41 
1267 423 2 9.71854 38.186 13.1612 -0.82 
1268 423 1 9.52439 37.3526 12.5659 0.41 
1269 423 1 9.36982 39.1045 12.7209 0.41 
1270 424 2 39.8623 39.5593 13.4193 -0.82 
1271 424 1 40.4734 39.73 14.2675 0.41 
1272 424 1 39.3079 38.7765 13.6833 0.41 
1273 425 2 25.8639 38.1657 44.9277 -0.82 
1274 425 1 25.7122 38.9044 45.6562 0.41 
1275 425 1 26.8709 37.8967 44.9193 0.41 
1276 426 2 24.3149 42.7865 16.3842 -0.82 
1277 426 1 24.2189 43.262 15.4937 0.41 
1278 426 1 24.9754 -0.0658281 16.9795 0.41 
1279 427 2 12.0233 18.698 9.42255 -0.82 
1280 427 1 11.0477 19.0346 9.42341 0.41 
1281 427 1 12.5854 19.6133 9.27103 0.41 
1282 428 2 14.8025 1.09143 25.4772 -0.82 
1283 428 1 15.5761 0.705756 26.0099 0.41 
1284 428 1 15.133 1.2459 24.4735 0.41 
1285 429 2 38.6485 5.51673 8.65197 -0.82 
1286 429 1 38.7711 6.47607 8.27568 0.41 
1287 429 1 39.1039 5.41327 9.5723 0.41 
1288 430 2 17.8069 4.42704 31.0428 -0.82 
1289 430 1 18.5102 5.10134 31.2592 0.41 
1290 430 1 18.2919 3.69724 30.4746 0.41 
1291 431 2 1.92648 2.51579 10.7959 -0.82 
1292 431 1 1.37647 2.82447 11.5393 0.41 
1293 431 1 1.84381 3.27184 10.1054 0.41 
1294 432 2 3.43054 32.7855 25.9129 -0.82 
1295 432 1 3.808 31.8243 26.1591 0.41 
1296 432 1 3.6462 33.2897 26.7766 0.41 
1297 433 2 9.43541 6.65262 37.1283 -0.82 
1298 433 1 9.64492 6.43193 36.176 0.41 
1299 433 1 8.66521 6.00567 37.4116 0.41 
1300 434 2 5.45413 8.89332 20.7809 -0.82 
1301 434 1 4.59722 9.3328 21.0969 0.41 
1302 434 1 5.30572 7.91849 20.6889 0.41 
1303 435 2 1.98028 34.0224 23.875 -0.82 
1304 435 1 2.4598 33.692 23.005 0.41 
1305 435 1 2.33193 33.5513 24.7459 0.41 
1306 436 2 26.905 21.3811 15.0313 -0.82 
1307 436 1 26.56 21.8297 15.9357 0.41 
1308 436 1 27.9113 21.4727 15.1247 0.41 
1309 437 2 12.934 23.7791 42.7668 -0.82 
1310 437 1 13.5329 24.5894 42.8824 0.41 
1311 437 1 12.0249 23.9396 43.2537 0.41 
1312 438 2 33.5316 26.4547 11.6307 -0.82 
1313 438 1 33.8916 27.322 12.0454 0.41 
1314 438 1 32.5543 26.3318 11.9726 0.41 
1315 439 2 27.3328 1.85856 15.2739 -0.82 
1316 439 1 27.6907 0.892135 15.2752 0.41 
1317 439 1 27.1727 2.14787 14.2982 0.41 
1318 440 2 41.8052 19.3694 15.1183 -0.82 
1319 440 1 41.8555 19.1764 14.1037 0.41 
1320 440 1 42.301 18.5896 15.5284 0.41 
1321 441 2 20.6687 14.6015 34.9272 -0.82 
1322 441 1 21.3113 13.8543 34.6187 0.41 
1323 441 1 21.2811 15.3841 35.0569 0.41 
1324 442 2 19.9867 40.2147 29.8526 -0.82 
1325 442 1 20.6044 40.2268 29.0439 0.41 
1326 442 1 19.9556 39.2129 30.0901 0.41 
1327 443 2 14.9371 17.1201 12.1959 -0.82 
1328 443 1 15.1601 16.9312 11.2001 0.41 
1329 443 1 15.6253 16.6156 12.8298 0.41 
1330 444 2 21.8467 21.6578 18.7855 -0.82 
1331 444 1 21.3728 21.1476 19.5074 0.41 
1332 444 1 21.4809 21.6305 17.8296 0.41 
1333 445 2 5.53729 25.2585 17.7965 -0.82 
1334 445 1 4.97396 24.8863 18.6159 0.41 
1335 445 1 5.54132 26.2737 17.8421 0.41 
1336 446 2 2.497 32.5173 21.5398 -0.82 
1337 446 1 3.25969 32.495 20.9242 0.41 
1338 446 1 1.61428 32.5963 21.0366 0.41 
1339 447 2 31.0032 23.8504 16.7044 -0.82 
1340 447 1 31.5167 23.6338 17.5823 0.41 
1341 447 1 30.0431 23.9939 17.0669 0.41 
1342 448 2 13.4303 12.4602 21.4804 -0.82 
1343 448 1 14.0701 13.1651 21.1234 0.41 
1344 448 1 12.8465 12.9576 22.2015 0.41 
1345 449 2 6.04833 17.2037 12.092 -0.82 
1346 449 1 5.15577 17.6221 12.3385 0.41 
1347 449 1 6.65668 17.222 12.9638 0.41 
1348 450 2 41.573 32.7565 17.5384 -0.82 
1349 450 1 42.028 31.9688 18.0848 0.41 
1350 450 1 41.2912 32.4667 16.6202 0.41 
1351 451 2 36.0921 9.61655 26.8759 -0.82 
1352 451 1 36.3084 9.60373 25.8438 0.41 
1353 451 1 35.265 9.12411 27.1181 0.41 
1354 452 2 7.00125 37.8815 23.814 -0.82 
1355 452 1 7.49449 38.8211 23.8641 0.41 
1356 452 1 6.05586 38.0446 23.369 0.41 
1357 453 2 29.7282 24.5912 9.07832 -0.82 
1358 453 1 29.3479 25.3214 9.66043 0.41 
1359 453 1 29.1353 24.5859 8.2637 0.41 
1360 454 2 2.15537 3.96456 26.0401 -0.82 
1361 454 1 2.63154 3.40458 25.3183 0.41 
1362 454 1 1.56101 4.67399 25.5519 0.41 
1363 455 2 38.3595 22.0988 22.3623 -0.82 
1364 455 1 37.5049 21.5924 22.6747 0.41 
1365 455 1 37.9531 22.8754 21.8856 0.41 
1366 456 2 10.6611 26.6443 19.4398 -0.82 
1367 456 1 9.74921 26.3022 19.0195 0.41 
1368 456 1 10.8388 25.9274 20.1473 0.41 
1369 457 2 24.565 26.6237 30.8581 -0.82 
1370 457 1 24.5583 27.3803 30.1326 0.41 
1371 457 1 25.1945 26.9857 31.563 0.41 
1372 458 2 40.1927 12.6471 10.6682 -0.82 
1373 458 1 39.3615 12.853 10.0487 0.41 
1374 458 1 40.0293 11.7186 11.1405 0.41 
1375 459 2 37.4734 37.4735 20.2524 -0.82 
1376 459 1 37.2047 38.4217 20.1878 0.41 
1377 459 1 38.3659 37.6022 20.7644 0.41 
1378 460 2 18.0094 41.5199 21.6941 -0.82 
1379 460 1 17.3891 41.7186 20.9027 0.41 
1380 460 1 17.5958 41.8994 22.5906 0.41 
1381 461 2 7.40201 3.0104 14.7954 -0.82 
1382 461 1 6.97955 3.33447 13.8909 0.41 
1383 461 1 7.82731 3.71966 15.4096 0.41 
1384 462 2 5.41308 12.2574 36.4748 -0.82 
1385 462 1 5.37767 13.2695 36.4836 0.41 
1386 462 1 5.57942 11.9479 35.5233 0.41 
1387 463 2 33.5402 26.9856 22.1177 -0.82 
1388 463 1 34.3716 27.2565 22.667 0.41 
1389 463 1 33.0606 27.8331 21.7551 0.41 
1390 464 2 16.0717 1.99141 37.4535 -0.82 
1391 464 1 15.1905 2.45226 37.5251 0.41 
1392 464 1 16.8278 2.46253 37.986 0.41 
1393 465 2 40.06 19.7559 9.92866 -0.82 
1394 465 1 40.8685 20.0042 9.42073 0.41 
1395 465 1 39.3424 20.4633 9.64812 0.41 
1396 466 2 23.245 14.9227 30.1513 -0.82 
1397 466 1 23.11 14.1913 30.8713 0.41 
1398 466 1 22.4786 14.7062 29.4683 0.41 
1399 467 2 9.661 36.0485 11.6882 -0.82 
1400 467 1 9.04361 35.2435 11.305 0.41 
1401 467 1 10.6002 35.7751 11.5879 0.41 
1402 468 2 30.6609 15.716 14.9093 -0.82 
1403 468 1 29.6911 16.1221 14.8548 0.41 
1404 468 1 30.7729 14.8001 14.3981 0.41 
1405 469 2 2.38075 15.411 43.3429 -0.82 
1406 469 1 1.48676 14.8497 43.4825 0.41 
1407 469 1 2.11157 16.4377 43.5013 0.41 
1408 470 2 5.29315 41.9172 12.0382 -0.82 
1409 470 1 5.1476 40.8991 11.9063 0.41 
1410 470 1 4.3844 42.3546 12.1974 0.41 
1411 471 2 19.5207 13.2815 40.9506 -0.82 
1412 471 1 19.7489 13.8186 41.7631 0.41 
1413 471 1 19.7942 13.6887 40.0864 0.41 
1414 472 2 23.2029 33.8383 12.5748 -0.82 
1415 472 1 23.5314 33.3289 11.7302 0.41 
1416 472 1 23.9377 34.5684 12.7324 0.41 
1417 473 2 39.1275 27.8291 30.3191 -0.82 
1418 473 1 40.1493 27.7875 30.2645 0.41 
1419 473 1 39.0967 27.8801 31.309 0.41 
1420 474 2 22.0809 41.0543 9.5767 -0.82 
1421 474 1 22.4305 41.9708 9.79239 0.41 
1422 474 1 22.944 40.5467 9.33296 0.41 
1423 475 2 41.1992 23.4258 22.1189 -0.82 
1424 475 1 41.0157 22.4071 21.9238 0.41 
1425 475 1 40.537 23.7532 22.7798 0.41 
1426 476 2 8.06359 19.0939 33.2676 -0.82 
1427 476 1 8.38335 18.6156 32.4439 0.41 
1428 476 1 8.90288 19.5231 33.7912 0.41 
1429 477 2 35.2208 10.275 15.9238 -0.82 
1430 477 1 34.2692 10.0617 15.5516 0.41 
1431 477 1 35.694 11.0934 15.542 0.41 
1432 478 2 16.104 30.7361 18.3767 -0.82 
1433 478 1 15.6914 31.7176 18.3035 0.41 
1434 478 1 15.5114 30.3159 17.6967 0.41 
1435 479 2 36.7054 29.2413 8.82508 -0.82 
1436 479 1 35.834 29.728 8.52482 0.41 
1437 479 1 36.4393 28.7272 9.68401 0.41 
1438 480 2 16.1704 42.2478 19.7203 -0.82 
1439 480 1 15.5679 42.9144 19.2667 0.41 
1440 480 1 16.6844 41.6251 19.0373 0.41 
1441 481 2 32.6515 1.65635 32.6937 -0.82 
1442 481 1 33.6216 1.43604 33.0082 0.41 
1443 481 1 32.385 1.16055 31.8216 0.41 
1444 482 2 16.5297 15.8578 13.9105 -0.82 
1445 482 1 16.356 16.162 14.9103 0.41 
1446 482 1 17.5138 15.5385 13.9043 0.41 
1447 483 2 39.1198 13.3023 13.5055 -0.82 
1448 483 1 38.8188 14.121 12.9968 0.41 
1449 483 1 39.8069 12.839 12.8906 0.41 
1450 484 2 33.5226 1.25835 10.1407 -0.82 
1451 484 1 34.4336 0.922439 9.79907 0.41 
1452 484 1 33.2066 0.863997 11.0479 0.41 
1453 485 2 14.1401 26.2592 42.3009 -0.82 
1454 485 1 14.3104 26.5151 43.2791 0.41 
1455 485 1 13.9313 27.1827 41.9124 0.41 
1456 486 2 14.6364 29.1379 16.7111 -0.82 
1457 486 1 13.9991 28.5349 17.2372 0.41 
1458 486 1 15.0236 28.6593 15.8897 0.41 
1459 487 2 31.2689 38.4923 10.3412 -0.82 
1460 487 1 31.0602 38.3007 11.3446 0.41 
1461 487 1 31.262 37.5552 9.8827 0.41 
1462 488 2 24.091 29.4601 39.7918 -0.82 
1463 488 1 25.0594 29.3873 39.3553 0.41 
1464 488 1 23.4069 29.2239 39.0199 0.41 
1465 489 2 31.5038 9.54521 17.7293 -0.82 
1466 489 1 31.3484 8.78915 17.0671 0.41 
1467 489 1 31.8194 10.4346 17.3831 0.41 
1468 490 2 5.38151 1.71947 24.0573 -0.82 
1469 490 1 4.40004 1.47112 23.9947 0.41 
1470 490 1 5.91649 0.802616 23.995 0.41 
1471 491 2 18.2037 33.8025 27.6716 -0.82 
1472 491 1 18.3952 34.571 28.3362 0.41 
1473 491 1 17.3155 33.3864 28.0548 0.41 
1474 492 2 29.6329 7.33199 11.6453 -0.82 
1475 492 1 30.3359 7.76828 11.0793 0.41 
1476 492 1 30.293 6.78832 12.2197 0.41 
1477 493 2 41.2889 9.55279 24.7642 -0.82 
1478 493 1 40.7819 10.3805 24.5692 0.41 
1479 493 1 40.8691 8.99324 25.5784 0.41 
1480 494 2 33.5106 17.3369 21.4954 -0.82 
1481 494 1 34.3005 17.9825 21.693 0.41 
1482 494 1 33.9131 16.4156 21.3888 0.41 
1483 495 2 7.34435 30.1618 24.7025 -0.82 
1484 495 1 7.00812 30.7119 23.8822 0.41 
1485 495 1 8.2005 30.5611 25.1655 0.41 
1486 496 2 26.7066 10.3308 20.2691 -0.82 
1487 496 1 27.2248 10.8226 19.5096 0.41 
1488 496 1 26.0024 9.69615 19.8327 0.41 
1489 497 2 3.95819 24.3531 19.9163 -0.82 
1490 497 1 3.86545 24.425 20.9344 0.41 
1491 497 1 3.15542 24.9019 19.4846 0.41 
1492 498 2 30.4082 4.0649 15.921 -0.82 
1493 498 1 31.1257 3.5456 15.3868 0.41 
1494 498 1 29.522 4.2304 15.5107 0.41 
1495 499 2 8.19552 34.1106 10.4835 -0.82 
1496 499 1 7.58764 33.5367 11.1804 0.41 
1497 499 1 7.54588 34.4356 9.71348 0.41 
1498 500 2 2.8694 16.8273 23.7223 -0.82 
1499 500 1 2.51526 15.8453 23.6757 0.41 
1500 500 1 3.89779 16.9327 23.6404 0.41 
1501 501 2 0.48165 32.5106 27.8488 -0.82 
1502 501 1 0.830044 33.4848 27.9405 0.41 
1503 501 1 42.8455 32.7048 27.9057 0.41 
1504 502 2 40.2771 41.585 24.4897 -0.82 
1505 502 1 39.7765 41.206 23.6401 0.41 
1506 502 1 39.9078 41.2659 25.4111 0.41 
1507 503 2 31.9045 13.3086 23.3607 -0.82 
1508 503 1 31.9452 13.0004 22.3946 0.41 
1509 503 1 32.6268 12.8453 23.9629 0.41 
1510 504 2 7.47001 0.419147 15.7964 -0.82 
1511 504 1 7.61032 1.39761 15.5758 0.41 
1512 504 1 7.70655 0.349088 16.8364 0.41 
1513 505 2 23.6265 4.67938 14.2683 -0.82 
1514 505 1 23.5657 3.99145 14.9752 0.41 
1515 505 1 23.0306 4.22267 13.5774 0.41 
1516 506 2 15.7364 14.6505 32.7104 -0.82 
1517 506 1 15.1204 15.2209 33.3358 0.41 
1518 506 1 16.1415 13.9995 33.44 0.41 
1519 507 2 4.80254 42.2649 16.2178 -0.82 
1520 507 1 5.616 42.9052 15.977 0.41 
1521 507 1 4.34205 42.4831 17.1231 0.41 
1522 508 2 29.0804 12.8404 24.6334 -0.82 
1523 508 1 29.3911 11.9249 24.3143 0.41 
1524 508 1 29.468 13.5273 24.0343 0.41 
1525 509 2 37.6479 42.3705 17.2576 -0.82 
1526 509 1 37.9382 43.1362 17.8974 0.41 
1527 509 1 38.1311 41.4681 17.5084 0.41 
1528 510 2 7.01588 29.5631 16.428 -0.82 
1529 510 1 6.93652 30.5412 16.7604 0.41 
1530 510 1 8.01295 29.321 16.3045 0.41 
1531 511 2 20.0951 38.0079 37.283 -0.82 
1532 511 1 19.1006 37.9576 36.9452 0.41 
1533 511 1 20.6722 37.9934 36.4259 0.41 
1534 512 2 34.8121 25.4072 19.8758 -0.82 
1535 512 1 34.7413 25.8847 18.9209 0.41 
1536 512 1 34.7611 26.1129 20.6104 0.41 
1537 513 2 22.2136 13.579 21.532 -0.82 
1538 513 1 21.6536 14.2229 20.9447 0.41 
1539 513 1 22.8995 14.1589 22.1093 0.41 
1540 514 2 9.45376 30.3553 30.7702 -0.82 
1541 514 1 9.83439 31.0723 31.4624 0.41 
1542 514 1 9.26099 29.5139 31.3683 0.41 
1543 515 2 15.2917 31.0149 10.1756 -0.82 
1544 515 1 15.8799 31.8157 10.1839 0.41 
1545 515 1 15.2881 30.556 11.0928 0.41 
1546 516 2 18.8429 25.2577 34.1088 -0.82 
1547 516 1 18.6782 25.1273 35.1156 0.41 
1548 516 1 18.0421 25.702 33.6426 0.41 
1549 517 2 19.3594 16.2229 17.0718 -0.82 
1550 517 1 20.0296 15.8399 16.4505 0.41 
1551 517 1 19.7474 16.3503 18.0405 0.41 
1552 518 2 28.5827 42.7978 25.8067 -0.82 
1553 518 1 28.9052 43.7613 25.6232 0.41 
1554 518 1 27.5773 -0.541731 25.9264 0.41 
1555 519 2 5.40529 25.9641 23.1798 -0.82 
1556 519 1 5.45697 26.8125 23.8439 0.41 
1557 519 1 4.84216 25.2145 23.5522 0.41 
1558 520 2 22.8262 39.3385 33.8086 -0.82 
1559 520 1 23.2646 38.6779 34.437 0.41 
1560 520 1 21.8235 39.3846 34.0644 0.41 
1561 521 2 18.456 20.549 26.0493 -0.82 
1562 521 1 19.2231 20.8053 25.334 0.41 
1563 521 1 17.8492 19.8514 25.6188 0.41 
1564 522 2 41.4946 8.44301 18.9548 -0.82 
1565 522 1 41.7112 9.42074 19.04 0.41 
1566 522 1 42.4145 8.02591 18.8804 0.41 
1567 523 2 43.1718 0.769577 31.3225 -0.82 
1568 523 1 42.7146 1.03161 30.4567 0.41 
1569 523 1 0.743809 1.03929 31.2548 0.41 
1570 524 2 31.9377 32.7059 11.5329 -0.82 
1571 524 1 32.5205 32.0895 10.9651 0.41 
1572 524 1 31.1129 32.9674 10.9666 0.41 
1573 525 2 34.858 40.709 14.6261 -0.82 
1574 525 1 35.3313 41.3672 15.2255 0.41 
1575 525 1 35.361 39.8329 14.7064 0.41 
1576 526 2 10.7053 38.719 31.839 -0.82 
1577 526 1 10.3403 39.5441 31.3892 0.41 
1578 526 1 10.0205 37.9843 31.702 0.41 
1579 527 2 3.74314 18.1336 12.6971 -0.82 
1580 527 1 3.35615 18.6221 13.5499 0.41 
1581 527 1 3.01303 18.0569 11.925 0.41 
1582 528 2 5.89367 42.5568 34.1027 -0.82 
1583 528 1 5.48495 41.9331 33.4003 0.41 
1584 528 1 6.03278 41.8418 34.8651 0.41 
1585 529 2 23.541 22.9852 13.5916 -0.82 
1586 529 1 22.5831 22.6163 13.7189 0.41 
1587 529 1 23.5133 23.8446 13.0282 0.41 
1588 530 2 23.6862 37.2687 43.859 -0.82 
1589 530 1 24.335 37.7875 44.4907 0.41 
1590 530 1 24.0765 36.3541 43.7159 0.41 
1591 531 2 8.04417 22.7056 28.1948 -0.82 
1592 531 1 7.69429 23.5639 28.6699 0.41 
1593 531 1 7.57627 22.7191 27.2044 0.41 
1594 532 2 32.8523 9.18812 11.9542 -0.82 
1595 532 1 32.7803 8.20677 11.6629 0.41 
1596 532 1 33.1517 9.72635 11.1558 0.41 
1597 533 2 29.2235 14.854 19.6121 -0.82 
1598 533 1 28.4758 14.6563 20.2432 0.41 
1599 533 1 29.355 13.9296 19.216 0.41 
1600 534 2 25.3764 19.2701 15.539 -0.82 
1601 534 1 25.6967 18.7289 16.369 0.41 
1602 534 1 25.9399 20.1432 15.3695 0.41 
1603 535 2 1.59503 30.8526 39.5604 -0.82 
1604 535 1 2.5735 30.8689 39.8498 0.41 
1605 535 1 1.36334 31.5908 38.8782 0.41 
1606 536 2 39.1615 20.2583 14.8128 -0.82 
1607 536 1 40.1231 20.1141 15.1891 0.41 
1608 536 1 39.0875 19.8976 13.8581 0.41 
1609 537 2 29.4333 25.5436 46.0862 -0.82 
1610 537 1 29.1549 25.6966 45.1215 0.41 
1611 537 1 30.4643 25.583 46.2281 0.41 
1612 538 2 27.9336 19.1132 41.2474 -0.82 
1613 538 1 27.2893 18.3125 41.29 0.41 
1614 538 1 28.3242 19.3366 42.1704 0.41 
1615 539 2 32.1991 14.6622 45.9147 -0.82 
1616 539 1 31.4818 15.229 46.3691 0.41 
1617 539 1 32.1742 13.6985 46.2954 0.41 
1618 540 2 4.65121 16.1779 9.94487 -0.82 
1619 540 1 4.15919 16.8426 9.32822 0.41 
1620 540 1 5.10708 16.6541 10.75 0.41 
1621 541 2 15.7373 5.41511 29.6981 -0.82 
1622 541 1 16.4434 5.12503 30.3593 0.41 
1623 541 1 15.8867 4.93359 28.8202 0.41 
1624 542 2 12.7279 42.1962 30.789 -0.82 
1625 542 1 13.1531 42.695 31.5962 0.41 
1626 542 1 12.3628 42.8272 30.0964 0.41 
1627 543 2 42.5534 38.658 40.9051 -0.82 
1628 543 1 42.9928 38.3397 40.0261 0.41 
1629 543 1 42.7478 39.6695 40.9068 0.41 
1630 544 2 2.43567 21.625 39.3745 -0.82 
1631 544 1 1.86704 20.7654 39.6139 0.41 
1632 544 1 3.4219 21.3555 39.6452 0.41 
1633 545 2 1.05032 11.9088 18.4649 -0.82 
1634 545 1 1.65279 12.1745 19.1992 0.41 
1635 545 1 1.22977 12.498 17.6374 0.41 
1636 546 2 41.437 4.137 31.1567 -0.82 
1637 546 1 40.495 4.07777 31.4772 0.41 
1638 546 1 41.9629 4.01102 32.0633 0.41 
1639 547 2 15.9897 7.02597 37.341 -0.82 
1640 547 1 15.1698 6.62079 36.8361 0.41 
1641 547 1 15.7392 7.70073 38.0899 0.41 
1642 548 2 41.9228 20.2886 32.0265 -0.82 
1643 548 1 41.2674 20.7373 31.2961 0.41 
1644 548 1 42.6299 20.9924 32.3775 0.41 
1645 549 2 14.7942 25.3022 10.4691 -0.82 
1646 549 1 13.9232 24.874 10.8098 0.41 
1647 549 1 14.6091 26.192 10.025 0.41 
1648 550 2 32.6594 24.4313 14.6068 -0.82 
1649 550 1 31.9069 24.3651 15.3071 0.41 
1650 550 1 32.4755 23.7871 13.8445 0.41 
1651 551 2 1.45195 2.84562 34.4754 -0.82 
1652 551 1 1.6291 2.4639 35.4084 0.41 
1653 551 1 2.00721 2.26272 33.7864 0.41 
1654 552 2 -0.0354142 37.7767 13.9547 -0.82 
1655 552 1 43.0241 37.4287 13.0436 0.41 
1656 552 1 0.157998 38.7731 13.8743 0.41 
1657 553 2 16.8986 37.9768 22.7112 -0.82 
1658 553 1 17.5943 37.2017 22.4841 0.41 
1659 553 1 16.945 38.8313 22.1729 0.41 
1660 554 2 15.9563 22.0236 28.676 -0.82 
1661 554 1 16.7501 21.4325 28.8477 0.41 
1662 554 1 16.0063 22.2667 27.6929 0.41 
1663 555 2 33.5783 8.65701 27.6731 -0.82 
1664 555 1 33.0885 8.07245 26.9685 0.41 
1665 555 1 32.8639 9.19589 28.2596 0.41 
1666 556 2 28.0611 42.725 15.0528 -0.82 
1667 556 1 28.5692 42.7007 15.9565 0.41 
1668 556 1 28.6645 42.2824 14.3492 0.41 
1669 557 2 6.68597 13.3002 18.9202 -0.82 
1670 557 1 6.46471 12.2743 18.9007 0.41 
1671 557 1 6.5022 13.5537 17.9762 0.41 
1672 558 2 18.0749 4.37822 12.5717 -0.82 
1673 558 1 17.6989 5.3378 12.3553 0.41 
1674 558 1 17.2634 3.97475 13.0999 0.41 
1675 559 2 2.05906 31.3515 43.1963 -0.82 
1676 559 1 1.38967 32.0608 43.4162 0.41 
1677 559 1 1.59693 30.705 42.5566 0.41 
1678 560 2 9.23211 29.2728 19.0663 -0.82 
1679 560 1 9.32214 29.3645 18.0704 0.41 
1680 560 1 9.32205 28.272 19.4163 0.41 
1681 561 2 4.2698 27.0982 10.6763 -0.82 
1682 561 1 3.95226 28.0346 10.9832 0.41 
1683 561 1 3.40193 26.5593 10.5518 0.41 
1684 562 2 9.02848 10.9829 14.3281 -0.82 
1685 562 1 9.40042 11.6432 14.9573 0.41 
1686 562 1 8.08819 10.7251 14.6198 0.41 
1687 563 2 39.189 26.0972 9.58042 -0.82 
1688 563 1 39.6188 26.712 10.2887 0.41 
1689 563 1 38.4634 26.5673 9.06961 0.41 
1690 564 2 12.8493 40.8712 25.2063 -0.82 
1691 564 1 13.0579 41.4352 26.0345 0.41 
1692 564 1 13.3028 41.3487 24.3809 0.41 
1693 565 2 18.3371 4.95357 24.4371 -0.82 
1694 565 1 17.7297 5.69021 24.8012 0.41 
1695 565 1 19.2436 4.89216 24.7808 0.41 
1696 566 2 6.95704 20.7271 36.5198 -0.82 
1697 566 1 6.73067 19.779 36.8474 0.41 
1698 566 1 7.7304 21.0172 37.1458 0.41 
1699 567 2 41.8904 35.4651 28.7623 -0.82 
1700 567 1 42.881 35.7027 28.9263 0.41 
1701 567 1 41.4989 36.0703 27.9975 0.41 
1702 568 2 28.3636 19.3941 23.5591 -0.82 
1703 568 1 28.6018 19.0497 22.6573 0.41 
1704 568 1 29.1557 19.9708 23.8427 0.41 
1705 569 2 22.3399 37.0882 20.6928 -0.82 
1706 569 1 22.213 36.1353 21.0726 0.41 
1707 569 1 23.1786 37.4447 21.2416 0.41 
1708 570 2 41.9004 40.6862 21.122 -0.82 
1709 570 1 42.7361 41.0342 21.6023 0.41 
1710 570 1 41.4427 41.4982 20.6651 0.41 
1711 571 2 29.0051 25.5373 19.5881 -0.82 
1712 571 1 29.2944 26.4379 20.0292 0.41 
1713 571 1 28.177 25.2034 20.0594 0.41 
1714 572 2 17.6653 36.8297 33.5754 -0.82 
1715 572 1 17.6671 37.2963 32.6365 0.41 
1716 572 1 18.2151 36.0009 33.4532 0.41 
1717 573 2 31.1279 2.97009 22.9382 -0.82 
1718 573 1 31.1194 4.00479 22.8246 0.41 
1719 573 1 30.3014 2.64975 23.4184 0.41 
1720 574 2 1.64867 27.4155 20.8845 -0.82 
1721 574 1 1.71274 28.2069 20.2235 0.41 
1722 574 1 1.87919 26.5166 20.366 0.41 
1723 575 2 -0.0380812 28.5485 28.2838 -0.82 
1724 575 1 0.127757 29.4158 27.7378 0.41 
1725 575 1 43.4193 27.6717 27.6956 0.41 
1726 576 2 12.264 1.58146 23.9026 -0.82 
1727 576 1 11.5232 1.74624 24.557 0.41 
1728 576 1 13.1218 1.69885 24.4172 0.41 
1729 577 2 6.9831 19.9539 11.9872 -0.82 
1730 577 1 6.76351 18.9372 12.1925 0.41 
1731 577 1 7.91082 20.0821 11.5171 0.41 
1732 578 2 3.47605 39.5179 20.1409 -0.82 
1733 578 1 2.60469 39.4201 20.6423 0.41 
1734 578 1 3.53963 40.4537 19.7088 0.41 
1735 579 2 21.4114 2.44606 31.3463 -0.82 
1736 579 1 21.2362 3.27911 31.9532 0.41 
1737 579 1 22.0859 2.86587 30.6628 0.41 
1738 580 2 17.8929 24.339 11.9686 -0.82 
1739 580 1 17.8599 24.1409 10.9689 0.41 
1740 580 1 17.439 25.2486 12.0559 0.41 
1741 581 2 31.4345 12.1855 16.7136 -0.82 
1742 581 1 30.5678 12.4467 16.2131 0.41 
1743 581 1 32.2281 12.5942 16.171 0.41 
1744 582 2 30.9872 31.1182 20.2456 -0.82 
1745 582 1 30.0166 31.4637 20.4111 0.41 
1746 582 1 31.0885 30.3696 20.9207 0.41 
1747 583 2 33.0747 18.6441 10.3926 -0.82 
1748 583 1 32.6492 17.6841 10.4018 0.41 
1749 583 1 33.3491 18.8908 11.3679 0.41 
1750 584 2 16.2248 11.0235 20.7574 -0.82 
1751 584 1 15.8203 10.1068 20.8419 0.41 
1752 584 1 15.584 11.7944 20.6148 0.41 
1753 585 2 41.278 42.2473 10.6139 -0.82 
1754 585 1 41.9771 41.5555 10.3115 0.41 
1755 585 1 41.8359 43.0787 10.9278 0.41 
1756 586 2 1.14093 24.2147 13.6595 -0.82 
1757 586 1 1.52244 24.0123 14.5964 0.41 
1758 586 1 0.332035 23.6256 13.5808 0.41 
1759 587 2 23.5155 22.517 25.9804 -0.82 
1760 587 1 23.8871 21.5798 26.2014 0.41 
1761 587 1 23.8604 23.2898 26.6021 0.41 
1762 588 2 10.9289 38.2557 28.3309 -0.82 
1763 588 1 11.378 37.4021 28.6266 0.41 
1764 588 1 10.7376 38.2649 27.3332 0.41 
1765 589 2 6.94991 27.2239 29.8711 -0.82 
1766 589 1 6.12909 27.7045 30.3339 0.41 
1767 589 1 7.36719 27.9099 29.2768 0.41 
1768 590 2 9.32061 8.14876 19.4502 -0.82 
1769 590 1 9.84285 7.24994 19.5316 0.41 
1770 590 1 10.08 8.83578 19.6403 0.41 
1771 591 2 33.0859 9.94289 14.6672 -0.82 
1772 591 1 33.178 9.57529 13.6753 0.41 
1773 591 1 32.0862 10.0205 14.8466 0.41 
1774 592 2 19.5244 37.1019 23.0697 -0.82 
1775 592 1 20.5016 37.1983 23.344 0.41 
1776 592 1 19.3121 36.0896 23.2631 0.41 
1777 593 2 33.6884 42.95 21.06 -0.82 
1778 593 1 33.3404 0.522011 21.0072 0.41 
1779 593 1 33.5936 42.5423 20.1327 0.41 
1780 594 2 18.9667 31.6351 23.8287 -0.82 
1781 594 1 19.7055 30.9922 24.1463 0.41 
1782 594 1 18.1301 31.2543 24.3404 0.41 
1783 595 2 16.8877 4.12601 42.7957 -0.82 
1784 595 1 16.5059 4.73677 42.0596 0.41 
1785 595 1 17.5002 3.51491 42.2788 0.41 
1786 596 2 32.9114 12.7305 14.4656 -0.82 
1787 596 1 33.2428 11.7736 14.3387 0.41 
1788 596 1 32.0339 12.7939 13.9456 0.41 
1789 597 2 14.087 39.3911 9.82007 -0.82 
1790 597 1 14.3279 40.3799 9.62016 0.41 
1791 597 1 13.0667 39.3061 9.85251 0.41 
1792 598 2 28.2478 39.3355 21.1498 -0.82 
1793 598 1 27.6337 38.6207 20.6937 0.41 
1794 598 1 27.7549 40.2364 21.0428 0.41 
1795 599 2 33.9494 23.7317 25.9687 -0.82 
1796 599 1 34.52 24.3468 25.3603 0.41 
1797 599 1 34.6874 23.1072 26.2441 0.41 
1798 600 2 18.0871 29.3558 12.4549 -0.82 
1799 600 1 18.5352 28.9655 13.2658 0.41 
1800 600 1 18.7283 30.1521 12.1945 0.41 
1801 601 2 15.9268 28.0344 19.8816 -0.82 
1802 601 1 16.0787 28.1674 20.9035 0.41 
1803 601 1 16.802 28.3869 19.4426 0.41 
1804 602 2 0.18907 42.787 22.2869 -0.82 
1805 602 1 1.08979 42.7357 22.7083 0.41 
1806 602 1 0.0566042 0.248318 21.8245 0.41 
1807 603 2 12.7477 38.2645 22.1476 -0.82 
1808 603 1 12.2468 37.365 21.9722 0.41 
1809 603 1 12.0983 38.8833 22.6714 0.41 
1810 604 2 7.48666 14.9433 22.7413 -0.82 
1811 604 1 8.15546 14.8877 21.9331 0.41 
1812 604 1 8.01509 14.9034 23.6868 0.41 
1813 605 2 41.5691 0.634162 33.5005 -0.82 
1814 605 1 42.2555 0.795174 32.7478 0.41 
1815 605 1 40.9352 43.2532 33.2241 0.41 
1816 606 2 43.4304 26.8584 42.798 -0.82 
1817 606 1 42.9943 26.6405 41.8814 0.41 
1818 606 1 0.704113 27.6525 42.5593 0.41 
1819 607 2 6.68269 33.5166 32.2218 -0.82 
1820 607 1 5.92949 32.9861 31.7736 0.41 
1821 607 1 6.58673 34.4814 31.9344 0.41 
1822 608 2 17.4816 35.5488 13.4024 -0.82 
1823 608 1 16.8147 36.2124 13.8308 0.41 
1824 608 1 18.1189 36.1862 12.8834 0.41 
1825 609 2 42.4032 27.5689 10.476 -0.82 
1826 609 1 42.2603 26.6683 10.0089 0.41 
1827 609 1 43.2812 27.4111 11.0041 0.41 
1828 610 2 38.003 0.0951839 22.9302 -0.82 
1829 610 1 38.2504 42.4658 22.9154 0.41 
1830 610 1 38.8202 0.693732 22.858 0.41 
1831 611 2 42.2019 2.75218 24.3677 -0.82 
1832 611 1 43.0218 3.01187 23.8927 0.41 
1833 611 1 41.6535 3.63068 24.2095 0.41 
1834 612 2 29.1457 7.96555 29.1358 -0.82 
1835 612 1 29.1555 8.93787 28.8172 0.41 
1836 612 1 29.6363 7.89624 30.0291 0.41 
1837 613 2 13.2508 22.1119 24.9105 -0.82 
1838 613 1 12.7942 21.4105 25.5 0.41 
1839 613 1 13.0436 22.996 25.3693 0.41 
1840 614 2 32.411 28.5247 18.5011 -0.82 
1841 614 1 31.5931 28.137 18.0136 0.41 
1842 614 1 32.1314 29.0785 19.3049 0.41 
1843 615 2 29.8869 10.5598 40.9798 -0.82 
1844 615 1 29.642 9.94907 40.1583 0.41 
1845 615 1 29.1115 10.4862 41.7222 0.41 
1846 616 2 7.16401 7.28494 39.649 -0.82 
1847 616 1 7.1919 6.59223 38.9855 0.41 
1848 616 1 7.24144 6.82041 40.5412 0.41 
1849 617 2 9.7834 40.5483 12.0246 -0.82 
1850 617 1 10.7938 40.6531 11.9216 0.41 
1851 617 1 9.18907 40.9568 11.2057 0.41 
1852 618 2 38.4226 0.973917 18.8962 -0.82 
1853 618 1 37.7925 1.21366 19.6541 0.41 
1854 618 1 38.2686 1.5709 18.085 0.41 
1855 619 2 8.28956 18.6376 19.1597 -0.82 
1856 619 1 8.87875 19.4418 19.0885 0.41 
1857 619 1 8.08373 18.6096 20.1326 0.41 
1858 620 2 33.0914 23.5156 18.7799 -0.82 
1859 620 1 33.6556 23.0298 18.0368 0.41 
1860 620 1 33.7415 24.1964 19.2155 0.41 
1861 621 2 5.94126 35.2026 19.414 -0.82 
1862 621 1 6.53057 35.7707 18.7787 0.41 
1863 621 1 5.0929 35.7549 19.566 0.41 
1864 622 2 28.2002 5.86928 36.1785 -0.82 
1865 622 1 29.0399 5.36327 36.5045 0.41 
1866 622 1 28.1647 5.74659 35.1618 0.41 
1867 623 2 29.1373 39.9635 15.2221 -0.82 
1868 623 1 28.4043 39.6661 14.5482 0.41 
1869 623 1 29.8148 40.6653 14.8212 0.41 
1870 624 2 10.1885 37.2234 19.3687 -0.82 
1871 624 1 10.9098 36.8931 19.9659 0.41 
1872 624 1 10.5102 37.7007 18.5464 0.41 
1873 625 2 26.068 22.518 17.1975 -0.82 
1874 625 1 26.3434 21.9016 17.9471 0.41 
1875 625 1 25.0744 22.8015 17.369 0.41 
1876 626 2 11.5969 13.6015 47.1767 -0.82 
1877 626 1 11.7261 14.6092 46.9408 0.41 
1878 626 1 11.6276 13.4463 48.1614 0.41 
1879 627 2 40.3083 1.50702 22.6246 -0.82 
1880 627 1 41.206 1.7431 23.0548 0.41 
1881 627 1 39.9321 2.35994 22.1851 0.41 
1882 628 2 2.74412 28.4301 25.7728 -0.82 
1883 628 1 2.09512 29.2086 25.5744 0.41 
1884 628 1 2.89824 27.9093 24.9712 0.41 
1885 629 2 1.82501 13.8729 29.8774 -0.82 
1886 629 1 2.4033 13.0078 29.7697 0.41 
1887 629 1 1.05038 13.6093 30.6238 0.41 
1888 630 2 34.934 37.8343 12.7207 -0.82 
1889 630 1 35.6784 37.2622 13.1265 0.41 
1890 630 1 34.0898 37.6974 13.2613 0.41 
1891 631 2 5.23016 25.0458 15.2157 -0.82 
1892 631 1 5.70281 25.9054 14.9307 0.41 
1893 631 1 5.10112 25.1739 16.2524 0.41 
1894 632 2 35.425 0.151166 26.603 -0.82 
1895 632 1 35.2156 1.12377 26.2431 0.41 
1896 632 1 34.8388 42.8053 26.2181 0.41 
1897 633 2 17.1279 30.1317 27.7125 -0.82 
1898 633 1 18.1358 29.7936 27.7083 0.41 
1899 633 1 17.046 30.7508 28.5297 0.41 
1900 634 2 19.1651 31.3604 11.1779 -0.82 