LAMMPS data file via write_data, version 7 Aug 2019, timestep = 0

3 atoms
3 atom types

0.0e+00 1.0e+01 xlo xhi
0.0e+00 1.0e+01 ylo yhi
0.0e+00 1.0e+01 zlo zhi

Masses

1 1.0
2 2.0
3 3.0

Atoms # atomic

1 1 1.0 0.0 0.0 0 0 0
2 2 0.0 1.0 0.0 0 0 0
3 3 0.0 0.0 1.0 0 0 0

Velocities 

1 1.0 1.0 0.0
2 0.0 0.0 0.0
3 0.0 0.0 0.0