LAMMPS data file via write_data, version 7 Aug 2019, timestep = 0 (mirrored yz, recentered)

3 atoms
3 atom types

0 10 xlo xhi
0 10 ylo yhi
0 10 zlo zhi

Atoms # atomic

1 1 9 0 0 0 0 0
2 2 10 1 0 0 0 0
3 3 10 0 1 0 0 0

Velocities

1 -1 1 0
2 -0 0 0
3 -0 0 0

