ITEM: TIMESTEP
10000000
ITEM: NUMBER OF ATOMS
3000
ITEM: BOX BOUNDS pp pp pp
0.0000000000000000e+00 3.1000000000000000e+01
0.0000000000000000e+00 3.1000000000000000e+01
0.0000000000000000e+00 3.1000000000000000e+01
ITEM: ATOMS id mol type x y z q 
1 1 2 22.8581 10.339 10.5153 -0.82 
2 1 1 21.8839 10.6078 10.3952 0.41 
3 1 1 22.9 9.3948 10.909 0.41 
4 2 2 28.0683 9.94566 0.573565 -0.82 
5 2 1 27.2805 9.92106 -0.0741786 0.41 
6 2 1 28.6906 10.7537 0.269681 0.41 
7 3 2 2.31617 16.2785 15.5535 -0.82 
8 3 1 2.18561 17.2872 15.8347 0.41 
9 3 1 1.71583 15.691 16.1724 0.41 
10 4 2 26.3502 14.1479 13.0652 -0.82 
11 4 1 25.711 13.7739 12.3321 0.41 
12 4 1 26.9029 14.907 12.6497 0.41 
13 5 2 25.5639 1.76649 14.5515 -0.82 
14 5 1 25.4751 2.2668 15.4428 0.41 
15 5 1 24.636 1.64562 14.1749 0.41 
16 6 2 19.2942 9.81093 13.9116 -0.82 
17 6 1 19.3515 9.25386 13.0156 0.41 
18 6 1 19.827 10.6783 13.8359 0.41 
19 7 2 4.04443 5.43432 24.7792 -0.82 
20 7 1 5.04845 5.7559 24.9864 0.41 
21 7 1 3.84142 4.75148 25.4776 0.41 
22 8 2 18.2008 23.52 13.5762 -0.82 
23 8 1 19.1717 23.9118 13.7035 0.41 
24 8 1 17.6494 23.9394 14.3243 0.41 
25 9 2 6.99246 26.9019 30.3657 -0.82 
26 9 1 7.4542 27.8466 30.3446 0.41 
27 9 1 7.28442 26.5468 0.274048 0.41 
28 10 2 1.4492 13.3502 2.06166 -0.82 
29 10 1 1.52374 13.6403 3.02312 0.41 
30 10 1 1.54162 14.1618 1.43815 0.41 
31 11 2 7.94363 23.4277 5.63934 -0.82 
32 11 1 8.33757 24.1751 6.21397 0.41 
33 11 1 7.82534 23.8262 4.65767 0.41 
34 12 2 26.5512 10.1189 20.325 -0.82 
35 12 1 27.2355 9.4596 20.6687 0.41 
36 12 1 26.2941 9.98003 19.2979 0.41 
37 13 2 30.4862 25.5719 19.2558 -0.82 
38 13 1 30.8514 24.653 18.9107 0.41 
39 13 1 30.0131 25.3855 20.1713 0.41 
40 14 2 5.72344 10.7125 10.0835 -0.82 
41 14 1 6.29135 11.4464 10.5005 0.41 
42 14 1 6.18599 10.2208 9.27704 0.41 
43 15 2 17.0424 26.9984 26.6277 -0.82 
44 15 1 16.2012 26.4046 26.7393 0.41 
45 15 1 17.5931 26.8909 27.4322 0.41 
46 16 2 19.5123 24.4656 3.69528 -0.82 
47 16 1 19.5243 23.6161 4.2533 0.41 
48 16 1 18.5595 24.9055 3.83058 0.41 
49 17 2 23.5003 20.5549 26.7945 -0.82 
50 17 1 22.5236 20.8502 26.848 0.41 
51 17 1 23.9777 21.4544 26.5752 0.41 
52 18 2 23.773 17.5235 3.21775 -0.82 
53 18 1 22.8953 17.1798 2.80143 0.41 
54 18 1 23.6402 18.6173 3.27667 0.41 
55 19 2 12.4799 6.36592 1.92078 -0.82 
56 19 1 11.9812 6.61086 2.75057 0.41 
57 19 1 12.7728 7.1778 1.39575 0.41 
58 20 2 3.57951 4.41296 27.6219 -0.82 
59 20 1 3.85608 3.97931 28.5129 0.41 
60 20 1 3.25234 5.38122 27.8675 0.41 
61 21 2 18.4248 29.535 18.5825 -0.82 
62 21 1 19.3454 29.7872 19.0096 0.41 
63 21 1 18.665 28.9137 17.7819 0.41 
64 22 2 28.4059 23.0076 27.8819 -0.82 
65 22 1 28.4692 23.3468 26.9223 0.41 
66 22 1 27.9359 23.7909 28.3569 0.41 
67 23 2 0.477093 11.5286 9.32609 -0.82 
68 23 1 31.0117 12.4391 9.55177 0.41 
69 23 1 1.51304 11.6383 9.25819 0.41 
70 24 2 13.6638 25.3332 5.77465 -0.82 
71 24 1 13.2212 26.2284 5.4729 0.41 
72 24 1 14.6741 25.4882 5.81171 0.41 
73 25 2 22.4336 4.57534 7.92475 -0.82 
74 25 1 21.758 5.21867 7.41682 0.41 
75 25 1 21.859 3.8051 8.34796 0.41 
76 26 2 5.38029 24.9826 12.9842 -0.82 
77 26 1 4.4896 24.7579 13.5268 0.41 
78 26 1 6.18461 24.853 13.6033 0.41 
79 27 2 11.4459 3.58781 19.8474 -0.82 
80 27 1 12.0121 2.78614 20.0331 0.41 
81 27 1 10.8298 3.52003 18.9805 0.41 
82 28 2 -0.0324719 9.95555 7.3484 -0.82 
83 28 1 30.2621 10.492 6.82986 0.41 
84 28 1 0.122848 10.5182 8.19511 0.41 
85 29 2 19.8806 30.0416 7.81301 -0.82 
86 29 1 20.3394 29.103 7.65055 0.41 
87 29 1 20.2769 30.7582 7.26805 0.41 
88 30 2 6.47272 12.5158 27.7321 -0.82 
89 30 1 5.79643 11.9678 28.3143 0.41 
90 30 1 6.81829 11.9932 26.9302 0.41 
91 31 2 9.81129 1.16634 20.5342 -0.82 
92 31 1 10.3177 1.95189 20.0868 0.41 
93 31 1 8.84301 1.48035 20.4904 0.41 
94 32 2 12.4823 0.95192 17.8713 -0.82 
95 32 1 13.343 1.11407 18.3911 0.41 
96 32 1 12.4992 1.32138 16.9407 0.41 
97 33 2 15.5383 13.5409 29.4765 -0.82 
98 33 1 16.247 13.2978 30.1411 0.41 
99 33 1 15.0375 14.3169 29.9265 0.41 
100 34 2 24.9237 27.0397 5.13618 -0.82 
101 34 1 24.5857 26.148 4.83485 0.41 
102 34 1 25.8915 27.0322 4.70993 0.41 
103 35 2 28.6423 5.45474 27.4102 -0.82 
104 35 1 27.6614 5.79088 27.3024 0.41 
105 35 1 29.1826 6.27997 27.7242 0.41 
106 36 2 23.9295 13.6572 8.75018 -0.82 
107 36 1 23.8931 12.915 8.05395 0.41 
108 36 1 24.4921 14.4754 8.44404 0.41 
109 37 2 29.3706 12.3017 25.5012 -0.82 
110 37 1 29.0195 13.1798 25.0939 0.41 
111 37 1 28.7985 11.5266 25.112 0.41 
112 38 2 21.3456 27.3688 12.3584 -0.82 
113 38 1 22.2423 27.577 12.8943 0.41 
114 38 1 21.4609 27.0342 11.361 0.41 
115 39 2 5.72609 11.6757 21.5007 -0.82 
116 39 1 6.39222 10.8644 21.5194 0.41 
117 39 1 5.67693 12.0222 20.5294 0.41 
118 40 2 21.4131 28.4499 27.962 -0.82 
119 40 1 22.0843 27.9794 27.3064 0.41 
120 40 1 21.1084 29.2498 27.3582 0.41 
121 41 2 16.9145 11.576 5.84034 -0.82 
122 41 1 16.2554 10.8992 6.30555 0.41 
123 41 1 17.4688 12.035 6.62028 0.41 
124 42 2 13.1192 5.91323 4.98507 -0.82 
125 42 1 12.3687 6.55149 4.68174 0.41 
126 42 1 12.7718 5.08567 5.5134 0.41 
127 43 2 3.89978 24.3864 8.9663 -0.82 
128 43 1 3.492 23.7088 9.5924 0.41 
129 43 1 4.18873 24.0489 8.02963 0.41 
130 44 2 0.199014 9.80172 14.3711 -0.82 
131 44 1 0.498384 9.19892 13.6206 0.41 
132 44 1 30.9268 9.10944 15.1344 0.41 
133 45 2 20.4794 11.2884 3.08562 -0.82 
134 45 1 20.2862 11.3419 4.02419 0.41 
135 45 1 20.5135 12.2496 2.61852 0.41 
136 46 2 3.00777 19.3851 22.5507 -0.82 
137 46 1 3.53855 20.2175 22.6825 0.41 
138 46 1 3.2467 18.7518 23.2721 0.41 
139 47 2 16.242 26.2531 9.24209 -0.82 
140 47 1 16.4053 27.2125 9.34003 0.41 
141 47 1 17.0915 25.8225 9.63195 0.41 
142 48 2 3.22919 22.3872 5.09833 -0.82 
143 48 1 4.24986 22.2776 5.1699 0.41 
144 48 1 2.84818 21.8723 4.30665 0.41 
145 49 2 31.0504 20.2452 22.5921 -0.82 
146 49 1 0.821331 19.5372 22.4894 0.41 
147 49 1 30.6189 19.8991 23.4379 0.41 
148 50 2 15.5585 1.15489 18.4637 -0.82 
149 50 1 16.4879 1.51356 18.4304 0.41 
150 50 1 15.5165 0.939413 19.4561 0.41 
151 51 2 30.1778 7.6646 28.5604 -0.82 
152 51 1 30.1668 7.44131 29.5629 0.41 
153 51 1 29.9315 8.57265 28.39 0.41 
154 52 2 10.7425 0.547092 9.36629 -0.82 
155 52 1 10.0234 31.0025 8.84751 0.41 
156 52 1 11.5628 -0.00429505 9.08734 0.41 
157 53 2 7.62436 18.5354 2.17516 -0.82 
158 53 1 8.33582 17.9955 1.64674 0.41 
159 53 1 7.98112 18.4602 3.16497 0.41 
160 54 2 13.2753 12.0602 21.9794 -0.82 
161 54 1 13.8131 12.6769 22.6579 0.41 
162 54 1 12.8113 12.6346 21.2867 0.41 
163 55 2 4.10043 4.18452 7.46492 -0.82 
164 55 1 4.10961 3.99183 6.42658 0.41 
165 55 1 4.69704 3.4642 7.96095 0.41 
166 56 2 15.2123 1.34091 0.134497 -0.82 
167 56 1 15.0346 1.37031 1.12663 0.41 
168 56 1 14.6696 2.05347 30.6186 0.41 
169 57 2 15.8731 22.9883 3.73769 -0.82 
170 57 1 16.4134 23.878 3.70779 0.41 
171 57 1 15.9009 22.5319 4.6544 0.41 
172 58 2 16.4617 25.2502 6.59072 -0.82 
173 58 1 16.438 24.1912 6.6202 0.41 
174 58 1 16.1811 25.6238 7.54032 0.41 
175 59 2 18.7117 9.16778 16.6391 -0.82 
176 59 1 17.7341 8.96658 16.7768 0.41 
177 59 1 18.8391 9.61397 15.7281 0.41 
178 60 2 24.2334 5.0643 25.1521 -0.82 
179 60 1 24.0638 6.03992 24.7626 0.41 
180 60 1 25.0525 4.7282 24.6625 0.41 
181 61 2 18.3881 10.7377 1.57326 -0.82 
182 61 1 17.4582 10.9627 1.98855 0.41 
183 61 1 19.1959 10.9207 2.2465 0.41 
184 62 2 27.7834 22.3318 15.0868 -0.82 
185 62 1 27.0345 22.9012 14.7389 0.41 
186 62 1 27.5107 21.674 15.7896 0.41 
187 63 2 1.47658 19.6905 9.71662 -0.82 
188 63 1 1.82633 20.2278 8.86409 0.41 
189 63 1 0.437312 19.7385 9.74875 0.41 
190 64 2 18.6265 23.4381 17.5064 -0.82 
191 64 1 18.8497 22.4138 17.5633 0.41 
192 64 1 18.3897 23.75 18.4757 0.41 
193 65 2 30.509 3.74092 9.93735 -0.82 
194 65 1 30.6656 4.33124 10.775 0.41 
195 65 1 -0.277302 2.80938 10.3645 0.41 
196 66 2 27.061 11.7908 14.1394 -0.82 
197 66 1 27.2282 11.1685 13.3062 0.41 
198 66 1 26.8788 12.729 13.7938 0.41 
199 67 2 9.75922 14.8338 23.7607 -0.82 
200 67 1 9.54295 14.9644 24.7374 0.41 
201 67 1 10.8237 14.924 23.6221 0.41 
202 68 2 2.71559 0.383875 19.0335 -0.82 
203 68 1 1.82004 0.541276 19.6655 0.41 
204 68 1 3.54941 0.414134 19.6182 0.41 
205 69 2 27.7263 -0.0508433 14.1142 -0.82 
206 69 1 27.7049 30.0912 14.6913 0.41 
207 69 1 26.8861 0.482955 14.2774 0.41 
208 70 2 19.1439 30.6864 14.974 -0.82 
209 70 1 19.0968 29.8651 14.4473 0.41 
210 70 1 18.3387 0.26153 15.0136 0.41 
211 71 2 19.9969 24.748 0.958091 -0.82 
212 71 1 19.972 25.7508 0.680652 0.41 
213 71 1 19.8782 24.6405 1.99143 0.41 
214 72 2 6.74108 8.87951 4.85354 -0.82 
215 72 1 5.95714 8.83631 5.48817 0.41 
216 72 1 6.5077 8.36313 3.9792 0.41 
217 73 2 2.46554 2.22972 3.32153 -0.82 
218 73 1 2.9162 1.30713 3.41536 0.41 
219 73 1 2.43533 2.56425 2.34906 0.41 
220 74 2 25.6008 2.40416 17.1066 -0.82 
221 74 1 25.5522 1.55242 17.6717 0.41 
222 74 1 24.8447 3.03611 17.2868 0.41 
223 75 2 6.53179 2.24708 4.83899 -0.82 
224 75 1 7.30757 2.84892 4.51208 0.41 
225 75 1 5.67396 2.91452 4.77601 0.41 
226 76 2 1.63177 26.1669 25.8453 -0.82 
227 76 1 2.56488 26.5705 26.006 0.41 
228 76 1 1.10374 26.1556 26.7011 0.41 
229 77 2 1.89017 8.84412 12.4252 -0.82 
230 77 1 1.53644 8.67849 11.4591 0.41 
231 77 1 2.81574 9.34554 12.4298 0.41 
232 78 2 18.9259 13.2347 16.173 -0.82 
233 78 1 19.609 13.7768 15.6389 0.41 
234 78 1 18.1295 13.7334 15.831 0.41 
235 79 2 15.9076 29.8416 2.63256 -0.82 
236 79 1 16.7633 30.4066 2.88007 0.41 
237 79 1 15.1153 30.3999 2.83105 0.41 
238 80 2 30.0544 17.5689 21.2803 -0.82 
239 80 1 29.4903 16.9954 21.9405 0.41 
240 80 1 29.7289 18.4889 21.5177 0.41 
241 81 2 10.2611 2.1968 22.962 -0.82 
242 81 1 10.0585 1.68589 22.0845 0.41 
243 81 1 10.7784 1.47352 23.4335 0.41 
244 82 2 2.01336 24.5382 6.47654 -0.82 
245 82 1 2.68147 23.9314 5.93835 0.41 
246 82 1 2.47161 25.4234 6.47115 0.41 
247 83 2 17.1953 17.5505 9.57684 -0.82 
248 83 1 17.0674 17.6506 8.58848 0.41 
249 83 1 17.921 16.8106 9.7377 0.41 
250 84 2 26.3673 6.98006 18.3618 -0.82 
251 84 1 26.4362 6.49821 17.4655 0.41 
252 84 1 26.2868 7.96869 18.2199 0.41 
253 85 2 16.3633 17.5495 1.96933 -0.82 
254 85 1 15.7494 16.7361 1.87757 0.41 
255 85 1 16.5343 17.9788 1.05755 0.41 
256 86 2 3.46431 3.83262 18.4853 -0.82 
257 86 1 3.66258 3.72967 19.4776 0.41 
258 86 1 3.62212 4.78143 18.2104 0.41 
259 87 2 16.9015 19.9789 26.3134 -0.82 
260 87 1 17.3363 20.7704 25.808 0.41 
261 87 1 16.0566 19.6916 25.7757 0.41 
262 88 2 0.27755 30.7802 16.2991 -0.82 
263 88 1 30.6746 0.481715 15.9133 0.41 
264 88 1 1.10784 0.261187 16.7211 0.41 
265 89 2 10.0847 9.75375 1.34431 -0.82 
266 89 1 9.652 8.79579 1.40808 0.41 
267 89 1 10.76 9.79155 2.05493 0.41 
268 90 2 2.44831 25.7937 20.1746 -0.82 
269 90 1 2.86069 26.1905 20.9646 0.41 
270 90 1 1.44749 26.0965 20.0792 0.41 
271 91 2 29.3561 7.35622 0.309162 -0.82 
272 91 1 28.8003 8.2287 0.398004 0.41 
273 91 1 28.6268 6.65599 0.17835 0.41 
274 92 2 21.33 14.0921 15.2857 -0.82 
275 92 1 22.022 14.7218 15.8024 0.41 
276 92 1 21.5386 14.4297 14.3221 0.41 
277 93 2 9.12587 25.1356 7.3077 -0.82 
278 93 1 8.64733 25.1469 8.24938 0.41 
279 93 1 10.0882 24.9032 7.35263 0.41 
280 94 2 20.9804 0.787894 29.2783 -0.82 
281 94 1 21.153 1.67276 29.8187 0.41 
282 94 1 20.5218 1.13996 28.449 0.41 
283 95 2 25.5344 17.4781 1.37301 -0.82 
284 95 1 26.5906 17.4551 1.61425 0.41 
285 95 1 24.851 17.5487 2.14252 0.41 
286 96 2 30.8974 26.727 12.3102 -0.82 
287 96 1 0.382538 27.6758 12.2002 0.41 
288 96 1 30.2149 26.5774 11.506 0.41 
289 97 2 20.1436 19.0625 22.8017 -0.82 
290 97 1 21.1432 19.3935 22.6927 0.41 
291 97 1 20.088 18.118 23.2338 0.41 
292 98 2 7.66019 24.2191 14.3541 -0.82 
293 98 1 7.44652 23.2423 14.2256 0.41 
294 98 1 8.6712 24.2521 14.4988 0.41 
295 99 2 17.0999 3.55708 22.0553 -0.82 
296 99 1 16.4785 4.40594 22.2029 0.41 
297 99 1 17.1158 3.15594 22.9645 0.41 
298 100 2 8.96723 15.8826 21.4263 -0.82 
299 100 1 8.35021 16.6975 21.46 0.41 
300 100 1 9.104 15.6467 22.4157 0.41 
301 101 2 11.7711 6.80338 16.6876 -0.82 
302 101 1 11.9626 6.68063 17.7211 0.41 
303 101 1 12.1438 7.80286 16.5052 0.41 
304 102 2 9.1699 13.7575 14.762 -0.82 
305 102 1 10.0625 13.5542 14.3707 0.41 
306 102 1 9.34758 14.0659 15.7271 0.41 
307 103 2 18.0982 23.8507 20.2127 -0.82 
308 103 1 17.9927 22.9293 20.7199 0.41 
309 103 1 19.0058 24.0826 20.5851 0.41 
310 104 2 19.9876 1.58683 5.02085 -0.82 
311 104 1 19.6251 1.69004 5.98235 0.41 
312 104 1 19.9454 2.48151 4.42585 0.41 
313 105 2 29.6663 29.5689 21.1595 -0.82 
314 105 1 29.0026 29.9615 21.8073 0.41 
315 105 1 29.1482 29.6294 20.2644 0.41 
316 106 2 17.4033 20.1488 22.8533 -0.82 
317 106 1 18.1593 19.4499 22.7223 0.41 
318 106 1 17.0214 20.4085 21.9489 0.41 
319 107 2 23.4199 8.12618 12.7798 -0.82 
320 107 1 22.5141 7.85146 13.0954 0.41 
321 107 1 23.5739 7.85207 11.8141 0.41 
322 108 2 4.97889 14.6189 30.0097 -0.82 
323 108 1 5.13186 13.5801 29.8503 0.41 
324 108 1 5.88026 15.0687 29.9068 0.41 
325 109 2 23.8315 16.8041 14.2271 -0.82 
326 109 1 24.3646 17.6657 14.0883 0.41 
327 109 1 24.2538 16.2749 15.0246 0.41 
328 110 2 0.733888 22.1406 20.7063 -0.82 
329 110 1 1.54061 22.6803 21.0792 0.41 
330 110 1 0.550886 21.3996 21.3744 0.41 
331 111 2 24.8411 0.805336 11.5045 -0.82 
332 111 1 24.2311 1.20115 12.2737 0.41 
333 111 1 24.8311 1.55514 10.8307 0.41 
334 112 2 22.6316 30.4114 1.21542 -0.82 
335 112 1 23.2432 29.5733 1.11016 0.41 
336 112 1 22.9581 30.8728 2.01324 0.41 
337 113 2 19.2285 29.846 30.1654 -0.82 
338 113 1 19.897 30.6337 30.0156 0.41 
339 113 1 19.5091 29.4356 31.0571 0.41 
340 114 2 7.34115 28.7149 22.6712 -0.82 
341 114 1 7.54525 27.9652 23.3677 0.41 
342 114 1 8.17766 29.2047 22.3993 0.41 
343 115 2 22.5523 21.4478 15.5839 -0.82 
344 115 1 22.5364 22.4912 15.4876 0.41 
345 115 1 23.4768 21.1361 15.851 0.41 
346 116 2 25.9669 11.3767 4.27867 -0.82 
347 116 1 25.279 10.6256 4.39518 0.41 
348 116 1 26.4303 11.5868 5.16639 0.41 
349 117 2 15.8444 9.13323 16.8206 -0.82 
350 117 1 15.6626 8.47076 17.5636 0.41 
351 117 1 15.7617 10.1285 17.166 0.41 
352 118 2 27.4928 5.44174 1.80686 -0.82 
353 118 1 28.4239 5.3111 2.30061 0.41 
354 118 1 26.8435 5.62027 2.54772 0.41 
355 119 2 1.69324 28.5203 16.9309 -0.82 
356 119 1 2.69919 28.622 17.0436 0.41 
357 119 1 1.15219 29.3566 16.7117 0.41 
358 120 2 21.727 5.2389 21.7444 -0.82 
359 120 1 21.9692 4.53563 21.0481 0.41 
360 120 1 22.0515 5.02357 22.6996 0.41 
361 121 2 12.3112 19.3441 22.703 -0.82 
362 121 1 12.153 18.6838 23.4492 0.41 
363 121 1 12.8232 18.8683 21.9668 0.41 
364 122 2 25.6755 29.0396 11.7246 -0.82 
365 122 1 25.36 30.0129 11.6418 0.41 
366 122 1 26.6972 29.0201 11.5156 0.41 
367 123 2 0.323002 19.1822 5.87537 -0.82 
368 123 1 1.04652 19.6945 6.4228 0.41 
369 123 1 30.8278 19.8682 5.28422 0.41 
370 124 2 6.76991 2.99242 13.8189 -0.82 
371 124 1 6.10059 3.43897 14.3876 0.41 
372 124 1 7.14775 3.7046 13.2135 0.41 
373 125 2 14.7751 19.7921 20.1763 -0.82 
374 125 1 14.6314 20.3931 19.3529 0.41 
375 125 1 13.9378 19.1788 20.1838 0.41 
376 126 2 8.85278 4.9662 6.91955 -0.82 
377 126 1 7.99559 4.9002 7.56063 0.41 
378 126 1 9.54825 4.39431 7.49948 0.41 
379 127 2 13.3103 7.47116 21.4001 -0.82 
380 127 1 13.0305 7.05947 22.2755 0.41 
381 127 1 13.7828 8.35119 21.6983 0.41 
382 128 2 0.926811 20.0335 14.0662 -0.82 
383 128 1 1.57621 19.6327 14.7666 0.41 
384 128 1 0.622779 20.9504 14.4108 0.41 
385 129 2 19.6689 5.39079 15.4411 -0.82 
386 129 1 19.0516 5.84846 14.7209 0.41 
387 129 1 20.1402 6.21421 15.9327 0.41 
388 130 2 22.1947 23.2501 19.6292 -0.82 
389 130 1 21.7371 24.1244 19.8569 0.41 
390 130 1 22.8673 23.0892 20.418 0.41 
391 131 2 19.2545 17.4345 0.558128 -0.82 
392 131 1 19.66 16.8478 30.7702 0.41 
393 131 1 19.2222 18.4362 0.296448 0.41 
394 132 2 24.4275 8.04815 6.88927 -0.82 
395 132 1 24.7378 8.79706 7.52072 0.41 
396 132 1 24.6461 7.09531 7.30875 0.41 
397 133 2 4.59886 19.2336 17.5819 -0.82 
398 133 1 5.20632 20.0365 17.9167 0.41 
399 133 1 5.09296 18.7316 16.7812 0.41 
400 134 2 10.6694 24.6477 13.9997 -0.82 
401 134 1 11.2859 25.4155 14.2901 0.41 
402 134 1 10.8902 23.8422 14.5445 0.41 
403 135 2 19.4235 21.0756 8.56941 -0.82 
404 135 1 19.5189 20.1199 8.90123 0.41 
405 135 1 19.258 20.8082 7.61856 0.41 
406 136 2 20.544 16.3256 26.5016 -0.82 
407 136 1 20.6142 17.3087 26.7608 0.41 
408 136 1 20.3207 15.8001 27.3376 0.41 
409 137 2 6.40865 9.02809 25.9167 -0.82 
410 137 1 6.40301 8.02871 25.6634 0.41 
411 137 1 6.79588 9.10271 26.9051 0.41 
412 138 2 2.4385 22.5982 10.3844 -0.82 
413 138 1 1.9212 23.3933 10.936 0.41 
414 138 1 2.56404 21.8356 11.0614 0.41 
415 139 2 15.9495 28.2612 6.39283 -0.82 
416 139 1 16.6222 28.238 5.55304 0.41 
417 139 1 16.56 28.3924 7.22513 0.41 
418 140 2 2.19472 5.75574 15.7511 -0.82 
419 140 1 1.79296 4.90503 16.1376 0.41 
420 140 1 2.87463 6.11505 16.3985 0.41 
421 141 2 2.61932 29.7632 28.0875 -0.82 
422 141 1 2.5874 30.7725 28.0932 0.41 
423 141 1 3.52124 29.5598 28.539 0.41 
424 142 2 4.38642 27.9668 16.9249 -0.82 
425 142 1 4.35316 26.9405 17.2272 0.41 
426 142 1 4.78025 28.054 15.9446 0.41 
427 143 2 11.8444 20.19 3.47147 -0.82 
428 143 1 11.1204 20.8064 3.76492 0.41 
429 143 1 12.701 20.3632 4.07621 0.41 
430 144 2 6.19343 4.03748 21.7895 -0.82 
431 144 1 6.754 4.83357 21.6141 0.41 
432 144 1 5.35576 4.59021 21.742 0.41 
433 145 2 1.28841 3.53102 7.04539 -0.82 
434 145 1 0.521375 3.33688 7.78855 0.41 
435 145 1 2.10091 3.89422 7.62105 0.41 
436 146 2 25.401 18.9291 14.4449 -0.82 
437 146 1 25.0876 19.2714 15.3765 0.41 
438 146 1 26.3246 18.3835 14.5965 0.41 
439 147 2 0.479007 0.725486 20.3783 -0.82 
440 147 1 -0.0672882 1.47499 20.8555 0.41 
441 147 1 -0.16048 30.9259 20.406 0.41 
442 148 2 19.3201 24.5945 28.6269 -0.82 
443 148 1 20.2625 24.6878 28.3089 0.41 
444 148 1 18.9122 25.5032 28.7552 0.41 
445 149 2 5.57803 22.2175 2.36467 -0.82 
446 149 1 6.23609 21.5949 1.83517 0.41 
447 149 1 4.88117 22.6608 1.72601 0.41 
448 150 2 21.71 11.1693 19.0585 -0.82 
449 150 1 22.4132 10.4774 19.3117 0.41 
450 150 1 21.7148 11.2009 18.0174 0.41 
451 151 2 16.583 10.6919 13.1603 -0.82 
452 151 1 17.4647 10.5432 13.6071 0.41 
453 151 1 15.9321 9.89774 13.2534 0.41 
454 152 2 4.5237 9.01069 6.66372 -0.82 
455 152 1 3.63347 8.45668 6.95428 0.41 
456 152 1 4.1212 9.8753 6.18228 0.41 
457 153 2 28.5121 0.788517 11.2507 -0.82 
458 153 1 28.419 0.513618 12.2346 0.41 
459 153 1 27.5952 1.16197 10.9527 0.41 
460 154 2 9.3466 0.350014 3.38112 -0.82 
461 154 1 9.79963 0.0433373 4.22907 0.41 
462 154 1 9.96809 0.353363 2.54522 0.41 
463 155 2 6.7955 0.561651 6.90992 -0.82 
464 155 1 6.15642 1.09908 7.55413 0.41 
465 155 1 6.79265 1.18976 6.10863 0.41 
466 156 2 4.48437 3.69968 4.81862 -0.82 
467 156 1 3.61651 3.30419 4.45401 0.41 
468 156 1 4.69364 4.63562 4.3779 0.41 
469 157 2 24.0411 7.26186 23.8114 -0.82 
470 157 1 23.0626 7.49145 23.7661 0.41 
471 157 1 24.5579 8.16999 23.8692 0.41 
472 158 2 7.1221 2.36114 27.0191 -0.82 
473 158 1 7.14573 3.3239 26.8256 0.41 
474 158 1 6.41019 1.77803 26.5076 0.41 
475 159 2 20.5816 2.98193 14.9292 -0.82 
476 159 1 20.2796 3.94522 15.2676 0.41 
477 159 1 19.9254 2.69031 14.1449 0.41 
478 160 2 18.1397 0.300256 25.2301 -0.82 
479 160 1 18.7042 30.6062 24.7004 0.41 
480 160 1 17.3676 30.8826 25.7974 0.41 
481 161 2 20.7069 2.76196 9.0855 -0.82 
482 161 1 20.8693 1.79891 9.52201 0.41 
483 161 1 19.8453 2.70739 8.52224 0.41 
484 162 2 26.7043 28.4703 17.2999 -0.82 
485 162 1 27.345 27.9794 16.7157 0.41 
486 162 1 27.3525 29.1685 17.6865 0.41 
487 163 2 7.03421 3.08266 10.3716 -0.82 
488 163 1 7.10243 3.76593 11.0787 0.41 
489 163 1 7.88297 2.53567 10.5267 0.41 
490 164 2 3.64128 4.65123 21.6711 -0.82 
491 164 1 3.00746 4.81723 22.4719 0.41 
492 164 1 3.62887 5.36563 20.9533 0.41 
493 165 2 10.3994 19.2039 10.8432 -0.82 
494 165 1 10.3719 20.1198 11.2611 0.41 
495 165 1 9.49511 18.7276 10.9536 0.41 
496 166 2 13.2114 28.2289 27.0951 -0.82 
497 166 1 13.3094 29.2019 26.7151 0.41 
498 166 1 13.5644 28.371 28.0442 0.41 
499 167 2 7.68078 14.5087 29.1905 -0.82 
500 167 1 7.24624 13.7511 28.6233 0.41 
501 167 1 8.36993 13.9975 29.721 0.41 
502 168 2 1.05595 1.42442 24.0697 -0.82 
503 168 1 1.00501 0.429885 24.1616 0.41 
504 168 1 1.73155 1.61624 23.2727 0.41 
505 169 2 9.55116 13.2881 9.96129 -0.82 
506 169 1 10.2097 13.895 10.4229 0.41 
507 169 1 8.58099 13.2566 10.3383 0.41 
508 170 2 1.78637 5.85978 29.8452 -0.82 
509 170 1 1.34964 6.06511 28.9029 0.41 
510 170 1 1.77939 6.68621 30.4864 0.41 
511 171 2 19.6313 17.4475 18.4955 -0.82 
512 171 1 20.3563 17.5065 19.2556 0.41 
513 171 1 19.8773 17.6476 17.5214 0.41 
514 172 2 14.2568 15.6921 2.92501 -0.82 
515 172 1 13.6274 16.487 3.11753 0.41 
516 172 1 13.8892 14.8252 3.30003 0.41 
517 173 2 11.4257 8.78062 7.45468 -0.82 
518 173 1 11.4733 9.62966 6.87417 0.41 
519 173 1 10.5536 8.31784 7.15119 0.41 
520 174 2 7.73767 6.01646 20.399 -0.82 
521 174 1 7.96298 6.97588 20.2572 0.41 
522 174 1 7.48017 5.47485 19.5472 0.41 
523 175 2 30.4544 10.3415 21.9336 -0.82 
524 175 1 0.453215 10.6175 22.0836 0.41 
525 175 1 30.4018 9.39824 22.3264 0.41 
526 176 2 6.94073 6.35272 25.1932 -0.82 
527 176 1 6.74082 5.80229 26.0767 0.41 
528 176 1 7.41448 5.78936 24.5538 0.41 
529 177 2 15.15 23.597 10.7028 -0.82 
530 177 1 14.8513 23.7303 9.75098 0.41 
531 177 1 16.1334 23.3927 10.6937 0.41 
532 178 2 24.688 21.1867 13.2095 -0.82 
533 178 1 24.5869 20.4088 13.8605 0.41 
534 178 1 24.7222 21.9358 13.9043 0.41 
535 179 2 29.2658 23.1946 4.50881 -0.82 
536 179 1 29.2073 24.0564 5.07579 0.41 
537 179 1 28.6704 23.3354 3.68646 0.41 
538 180 2 16.5985 19.5168 4.12918 -0.82 
539 180 1 16.4554 18.5866 3.68053 0.41 
540 180 1 16.7383 20.0982 3.34415 0.41 
541 181 2 28.1293 25.3854 17.4647 -0.82 
542 181 1 28.332 24.9606 16.5299 0.41 
543 181 1 29.0304 25.7348 17.7829 0.41 
544 182 2 13.1629 16.9834 6.22824 -0.82 
545 182 1 13.9317 16.3227 6.21486 0.41 
546 182 1 13.4867 17.9568 6.33282 0.41 
547 183 2 15.7657 6.13378 4.51937 -0.82 
548 183 1 14.7469 5.99956 4.8385 0.41 
549 183 1 15.8551 6.9184 3.881 0.41 
550 184 2 21.7696 22.9491 28.6446 -0.82 
551 184 1 20.9036 22.4986 28.7724 0.41 
552 184 1 22.429 22.9097 29.3877 0.41 
553 185 2 26.6289 2.33909 19.9867 -0.82 
554 185 1 26.2008 3.2695 19.8389 0.41 
555 185 1 25.9835 1.66493 19.6421 0.41 
556 186 2 22.6193 26.5168 17.5614 -0.82 
557 186 1 23.124 25.7064 17.7822 0.41 
558 186 1 23.2473 27.3025 17.2885 0.41 
559 187 2 19.1461 25.4434 7.00148 -0.82 
560 187 1 19.583 24.6231 6.59622 0.41 
561 187 1 18.1647 25.4219 6.76146 0.41 
562 188 2 13.2611 15.0269 8.73949 -0.82 
563 188 1 13.4849 16.043 8.96751 0.41 
564 188 1 12.4216 14.95 8.16582 0.41 
565 189 2 26.0745 25.0881 18.9527 -0.82 
566 189 1 26.8978 25.3617 18.3232 0.41 
567 189 1 26.0754 25.5865 19.8722 0.41 
568 190 2 25.1524 0.216323 19.2367 -0.82 
569 190 1 24.3328 -0.159049 18.8277 0.41 
570 190 1 25.5693 30.4557 19.8044 0.41 
571 191 2 21.8207 17.0367 10.6943 -0.82 
572 191 1 21.8805 16.4251 11.4897 0.41 
573 191 1 22.773 17.3404 10.3727 0.41 
574 192 2 1.08595 24.5003 11.4815 -0.82 
575 192 1 0.759986 25.2495 12.1157 0.41 
576 192 1 1.3036 24.9622 10.557 0.41 
577 193 2 0.60563 15.2825 17.1487 -0.82 
578 193 1 0.69761 14.2375 17.1903 0.41 
579 193 1 0.509689 15.6238 18.1606 0.41 
580 194 2 0.0960784 20.3238 1.35774 -0.82 
581 194 1 30.7313 20.3501 0.369426 0.41 
582 194 1 0.85309 20.9594 1.59656 0.41 
583 195 2 29.961 1.30571 14.7852 -0.82 
584 195 1 29.2283 0.644326 14.3324 0.41 
585 195 1 29.3918 2.05473 15.2369 0.41 
586 196 2 12.5614 4.02876 6.67287 -0.82 
587 196 1 11.917 3.40243 7.29331 0.41 
588 196 1 13.1671 4.45827 7.4144 0.41 
589 197 2 21.9164 12.3041 27.5068 -0.82 
590 197 1 22.2647 13.1243 26.9305 0.41 
591 197 1 20.9115 12.2879 27.2388 0.41 
592 198 2 6.75736 8.8206 18.5024 -0.82 
593 198 1 7.26411 8.79349 19.4193 0.41 
594 198 1 7.40984 8.91057 17.7325 0.41 
595 199 2 15.7996 17.6015 30.1577 -0.82 
596 199 1 16.637 17.5952 29.5446 0.41 
597 199 1 15.4042 18.4811 30.3664 0.41 
598 200 2 14.4821 17.6566 27.5004 -0.82 
599 200 1 15.3972 17.4983 27.937 0.41 
600 200 1 13.8309 17.5395 28.2414 0.41 
601 201 2 8.79746 0.6847 25.2002 -0.82 
602 201 1 8.12536 1.09294 24.5433 0.41 
603 201 1 9.7018 0.445612 24.7037 0.41 
604 202 2 20.7232 27.5704 7.65574 -0.82 
605 202 1 21.2627 27.3457 8.529 0.41 
606 202 1 20.1558 26.742 7.30954 0.41 
607 203 2 12.9856 2.87855 27.4432 -0.82 
608 203 1 12.0423 3.11435 27.0521 0.41 
609 203 1 13.6401 3.23332 26.7759 0.41 
610 204 2 2.27618 8.14862 0.673743 -0.82 
611 204 1 2.65237 7.97217 1.62437 0.41 
612 204 1 1.54787 8.78465 0.87707 0.41 
613 205 2 14.8729 19.9084 30.84 -0.82 
614 205 1 15.0449 20.0161 0.844347 0.41 
615 205 1 14.9002 20.8512 30.3993 0.41 
616 206 2 8.71187 19.4751 24.6062 -0.82 
617 206 1 9.18989 19.0203 25.337 0.41 
618 206 1 8.0051 20.0206 25.0618 0.41 
619 207 2 0.342751 1.23994 28.2309 -0.82 
620 207 1 30.841 1.9891 27.6532 0.41 
621 207 1 1.25872 1.10245 27.8252 0.41 
622 208 2 23.7408 28.1669 13.6589 -0.82 
623 208 1 24.4747 28.4145 12.9174 0.41 
624 208 1 24.0338 28.4213 14.5907 0.41 
625 209 2 28.9606 2.05547 21.2544 -0.82 
626 209 1 28.7566 1.28073 21.9522 0.41 
627 209 1 28.0587 2.16489 20.7328 0.41 
628 210 2 13.1762 10.9841 1.89148 -0.82 
629 210 1 12.6187 10.3165 2.4729 0.41 
630 210 1 12.8543 11.991 2.06716 0.41 
631 211 2 9.18121 24.9792 27.7433 -0.82 
632 211 1 9.76178 25.2951 28.5334 0.41 
633 211 1 8.59592 25.8176 27.6634 0.41 
634 212 2 14.5396 19.8993 10.9223 -0.82 
635 212 1 13.7878 20.522 11.1744 0.41 
636 212 1 14.1684 19.1748 10.246 0.41 
637 213 2 10.9426 30.7868 5.74106 -0.82 
638 213 1 11.8732 30.2468 5.95175 0.41 
639 213 1 10.2906 30.3556 6.44263 0.41 
640 214 2 21.4901 27.0916 30.1671 -0.82 
641 214 1 21.1788 27.6143 29.2813 0.41 
642 214 1 20.6292 27.0466 30.7166 0.41 
643 215 2 13.8527 23.8167 1.32616 -0.82 
644 215 1 12.8438 23.6093 1.61965 0.41 
645 215 1 14.5007 23.6378 2.07305 0.41 
646 216 2 1.73198 6.17346 13.0707 -0.82 
647 216 1 1.95013 7.15883 12.7999 0.41 
648 216 1 1.91647 6.31626 14.0731 0.41 
649 217 2 2.90055 13.6829 11.6865 -0.82 
650 217 1 2.71888 13.0801 12.4978 0.41 
651 217 1 2.88079 13.0717 10.8743 0.41 
652 218 2 6.42659 6.25171 29.7248 -0.82 
653 218 1 5.78742 7.1059 29.7066 0.41 
654 218 1 7.3734 6.64096 29.9364 0.41 
655 219 2 20.7284 18.7629 27.657 -0.82 
656 219 1 20.1749 18.8923 28.4817 0.41 
657 219 1 20.5153 19.5368 27.0279 0.41 
658 220 2 11.6262 0.52906 29.4756 -0.82 
659 220 1 11.3896 1.50565 29.4448 0.41 
660 220 1 10.9459 30.9932 28.9055 0.41 
661 221 2 1.98305 7.98549 7.27331 -0.82 
662 221 1 1.23702 8.71577 7.40718 0.41 
663 221 1 1.51423 7.30644 6.7453 0.41 
664 222 2 13.8125 1.3742 5.43901 -0.82 
665 222 1 12.8273 1.7937 5.44874 0.41 
666 222 1 14.3449 2.13233 5.83402 0.41 
667 223 2 16.7788 2.86374 28.8352 -0.82 
668 223 1 17.1966 3.29844 29.6396 0.41 
669 223 1 16.6808 1.85037 28.9416 0.41 
670 224 2 25.0027 16.6679 11.6435 -0.82 
671 224 1 24.8914 17.5776 11.2255 0.41 
672 224 1 24.6372 16.4949 12.5941 0.41 
673 225 2 5.11376 29.8919 23.0395 -0.82 
674 225 1 6.11375 29.5436 22.828 0.41 
675 225 1 4.7531 30.1574 22.1501 0.41 
676 226 2 10.3896 3.58173 30.8126 -0.82 
677 226 1 10.793 4.35049 30.2664 0.41 
678 226 1 9.89209 3.02005 30.0577 0.41 
679 227 2 13.1393 22.801 4.5843 -0.82 
680 227 1 13.3194 23.7194 5.09443 0.41 
681 227 1 12.3606 22.9792 4.03709 0.41 
682 228 2 11.3879 23.4231 24.8484 -0.82 
683 228 1 10.4281 23.4087 25.2038 0.41 
684 228 1 11.6729 22.7147 24.1873 0.41 
685 229 2 24.1423 28.5726 16.5489 -0.82 
686 229 1 23.617 29.3516 16.9616 0.41 
687 229 1 25.1212 28.6133 16.8224 0.41 
688 230 2 21.0571 10.5414 24.4071 -0.82 
689 230 1 21.1576 9.52164 24.2181 0.41 
690 230 1 21.9324 10.9783 24.0901 0.41 
691 231 2 10.8862 26.93 25.8953 -0.82 
692 231 1 10.408 26.0456 25.9434 0.41 
693 231 1 11.5168 27.1651 26.6407 0.41 
694 232 2 19.407 29.0629 23.9621 -0.82 
695 232 1 19.1019 28.139 24.2898 0.41 
696 232 1 20.4431 29.0366 23.9809 0.41 
697 233 2 8.58133 9.2845 12.5122 -0.82 
698 233 1 7.85254 8.86756 11.9552 0.41 
699 233 1 8.93001 9.95494 11.8569 0.41 
700 234 2 12.4187 27.8948 4.27889 -0.82 
701 234 1 12.9137 28.582 4.87527 0.41 
702 234 1 11.4693 27.8232 4.75724 0.41 
703 235 2 29.3505 18.9441 17.9363 -0.82 
704 235 1 29.2652 18.0114 17.6292 0.41 
705 235 1 30.3195 19.1746 18.071 0.41 
706 236 2 7.53848 27.2725 27.5549 -0.82 
707 236 1 7.39916 28.2496 27.2175 0.41 
708 236 1 7.11105 27.1766 28.5136 0.41 
709 237 2 3.28317 24.3156 14.5198 -0.82 
710 237 1 2.75831 25.1073 14.9664 0.41 
711 237 1 3.59624 23.7816 15.3075 0.41 
712 238 2 27.4591 5.75478 11.1904 -0.82 
713 238 1 28.3507 6.09375 11.4111 0.41 
714 238 1 27.033 5.49243 12.0869 0.41 
715 239 2 27.37 23.9054 9.02133 -0.82 
716 239 1 27.7799 23.164 8.40547 0.41 
717 239 1 27.4201 23.6227 9.98499 0.41 
718 240 2 12.4786 6.36099 23.5515 -0.82 
719 240 1 11.9178 6.94508 24.2381 0.41 
720 240 1 11.9197 5.57272 23.1523 0.41 
721 241 2 23.8568 9.75656 20.3733 -0.82 
722 241 1 24.9078 9.77947 20.3049 0.41 
723 241 1 23.5104 10.3114 21.1551 0.41 
724 242 2 12.757 11.1432 26.0884 -0.82 
725 242 1 12.557 11.5528 27.0694 0.41 
726 242 1 13.2801 11.8585 25.5641 0.41 
727 243 2 12.0752 13.527 1.9482 -0.82 
728 243 1 11.1839 13.9801 2.26431 0.41 
729 243 1 12.2452 13.9318 1.05718 0.41 
730 244 2 8.1205 27.6604 9.58809 -0.82 
731 244 1 8.91706 27.7385 10.2952 0.41 
732 244 1 7.3825 27.3087 10.2352 0.41 
733 245 2 17.0364 1.50373 15.0774 -0.82 
734 245 1 17.3424 2.04497 15.8985 0.41 
735 245 1 17.3434 2.01731 14.3015 0.41 
736 246 2 12.8838 21.9974 23.1281 -0.82 
737 246 1 12.4223 21.1534 22.8791 0.41 
738 246 1 13.2888 22.35 22.2397 0.41 
739 247 2 18.7997 20.7153 17.5722 -0.82 
740 247 1 18.2768 19.9483 17.074 0.41 
741 247 1 19.6072 20.3925 18.0622 0.41 
742 248 2 7.69764 23.8355 3.07804 -0.82 
743 248 1 6.79089 23.3754 3.05063 0.41 
744 248 1 7.69705 24.758 2.58633 0.41 
745 249 2 30.2745 2.98182 26.7948 -0.82 
746 249 1 0.240204 3.2735 26.4974 0.41 
747 249 1 29.7353 3.92121 26.9434 0.41 
748 250 2 11.4332 10.1785 18.5161 -0.82 
749 250 1 11.6376 9.85673 19.4968 0.41 
750 250 1 10.9262 11.0834 18.5988 0.41 
751 251 2 2.18655 15.5272 0.271727 -0.82 
752 251 1 3.1986 15.4977 31.5335 0.41 