ITEM: TIMESTEP
350100
ITEM: NUMBER OF ATOMS
3000
ITEM: BOX BOUNDS pp pp pp
0.0000000000000000e+00 3.1000000000000000e+01
0.0000000000000000e+00 3.1000000000000000e+01
0.0000000000000000e+00 3.1000000000000000e+01
ITEM: ATOMS id mol type x y z q 
1 1 2 16.7805 29.8529 7.33194 -0.82 
2 1 1 17.5163 29.2754 6.88079 0.41 
3 1 1 17.0772 30.84 7.04031 0.41 
4 2 2 25.2617 7.52138 12.5117 -0.82 
5 2 1 24.7645 7.33987 13.3869 0.41 
6 2 1 24.6286 7.91107 11.831 0.41 
7 3 2 3.94474 10.5865 3.56517 -0.82 
8 3 1 3.19946 9.93644 3.36955 0.41 
9 3 1 4.04407 11.3871 2.92312 0.41 
10 4 2 12.4279 0.0566707 20.8812 -0.82 
11 4 1 11.5855 0.465183 21.2463 0.41 
12 4 1 12.6072 30.2652 21.5122 0.41 
13 5 2 20.9149 30.8039 6.69058 -0.82 
14 5 1 21.7799 30.2246 6.58184 0.41 
15 5 1 21.2098 0.42954 7.39624 0.41 
16 6 2 15.2576 28.2347 29.6768 -0.82 
17 6 1 15.1978 29.0477 30.3299 0.41 
18 6 1 14.8304 27.4493 30.1705 0.41 
19 7 2 11.0496 12.2916 29.6235 -0.82 
20 7 1 10.0707 12.4987 29.6498 0.41 
21 7 1 11.5704 13.1036 29.3421 0.41 
22 8 2 26.0699 24.1717 27.6678 -0.82 
23 8 1 26.3004 25.1289 27.8835 0.41 
24 8 1 26.8236 23.8138 26.9813 0.41 
25 9 2 4.60811 9.82559 18.0564 -0.82 
26 9 1 3.66133 9.59914 18.5103 0.41 
27 9 1 5.20466 10.1297 18.8467 0.41 
28 10 2 29.3917 10.0747 25.8 -0.82 
29 10 1 28.6112 9.63378 26.335 0.41 
30 10 1 29.9374 9.2285 25.4289 0.41 
31 11 2 2.8609 13.7356 29.3024 -0.82 
32 11 1 3.37592 14.3607 29.8989 0.41 
33 11 1 3.36101 13.8289 28.4187 0.41 
34 12 2 16.0205 6.74578 17.2687 -0.82 
35 12 1 17.049 6.78802 17.6129 0.41 
36 12 1 16.2005 6.84196 16.2795 0.41 
37 13 2 13.5086 27.0895 12.8491 -0.82 
38 13 1 14.3748 27.0954 13.3552 0.41 
39 13 1 13.7568 27.0685 11.8333 0.41 
40 14 2 13.5171 16.8741 1.85566 -0.82 
41 14 1 14.0124 17.6584 1.44603 0.41 
42 14 1 12.6449 17.2224 2.25035 0.41 
43 15 2 27.8784 19.5956 13.0214 -0.82 
44 15 1 28.3925 20.4746 13.3194 0.41 
45 15 1 28.4569 18.7668 12.7708 0.41 
46 16 2 9.81718 19.2995 26.7001 -0.82 
47 16 1 10.6134 19.4947 27.2809 0.41 
48 16 1 9.277 20.184 26.5426 0.41 
49 17 2 20.3389 23.0966 18.0457 -0.82 
50 17 1 20.6402 22.6031 17.1539 0.41 
51 17 1 19.6932 23.9183 17.8182 0.41 
52 18 2 29.4696 6.41531 12.8539 -0.82 
53 18 1 28.9501 6.17761 13.7314 0.41 
54 18 1 30.4325 6.01825 13.0137 0.41 
55 19 2 8.7559 20.6229 17.7523 -0.82 
56 19 1 9.35754 21.0033 18.4588 0.41 
57 19 1 7.82687 20.3909 18.1558 0.41 
58 20 2 23.7337 22.0301 18.8002 -0.82 
59 20 1 23.9223 21.8304 19.7573 0.41 
60 20 1 23.0623 21.3221 18.4018 0.41 
61 21 2 10.1428 21.4139 19.7811 -0.82 
62 21 1 10.065 20.7636 20.6273 0.41 
63 21 1 10.9594 21.9581 19.9193 0.41 
64 22 2 23.81 21.2498 9.48665 -0.82 
65 22 1 23.2663 20.5319 8.98517 0.41 
66 22 1 24.7157 20.7702 9.59467 0.41 
67 23 2 4.36658 15.2627 8.8347 -0.82 
68 23 1 4.06856 14.4231 9.40638 0.41 
69 23 1 3.57107 15.8869 8.55981 0.41 
70 24 2 7.32084 3.05888 21.3167 -0.82 
71 24 1 6.95234 2.22308 20.7333 0.41 
72 24 1 7.3226 2.79575 22.3644 0.41 
73 25 2 27.7121 8.64002 27.4739 -0.82 
74 25 1 26.9116 8.73385 26.8228 0.41 
75 25 1 27.4692 8.87594 28.4565 0.41 
76 26 2 26.9041 6.85763 9.00035 -0.82 
77 26 1 25.8935 6.67614 8.79835 0.41 
78 26 1 27.0732 6.3424 9.86147 0.41 
79 27 2 10.7946 17.2179 17.2603 -0.82 
80 27 1 11.747 17.5989 17.2141 0.41 
81 27 1 10.1359 17.8118 16.7128 0.41 
82 28 2 10.446 6.23547 21.0511 -0.82 
83 28 1 10.0829 5.36891 20.7135 0.41 
84 28 1 10.4383 6.25127 22.0749 0.41 
85 29 2 27.906 27.9476 15.8353 -0.82 
86 29 1 27.519 28.7665 16.3069 0.41 
87 29 1 28.4713 27.5673 16.5756 0.41 
88 30 2 18.2026 24.8393 21.7885 -0.82 
89 30 1 18.4154 25.7686 21.4121 0.41 
90 30 1 17.5597 24.3433 21.1384 0.41 
91 31 2 30.6135 27.3359 17.9816 -0.82 
92 31 1 30.1309 28.216 18.3668 0.41 
93 31 1 0.331896 27.4251 17.2867 0.41 
94 32 2 14.7756 4.05633 21.9493 -0.82 
95 32 1 15.6302 4.41825 21.5624 0.41 
96 32 1 14.2577 3.39487 21.2896 0.41 
97 33 2 14.3094 20.8114 21.8095 -0.82 
98 33 1 13.3841 20.3378 21.792 0.41 
99 33 1 14.4091 21.6118 21.1497 0.41 
100 34 2 4.37369 14.5061 24.3777 -0.82 
101 34 1 4.8428 13.7219 23.8633 0.41 
102 34 1 4.77846 15.4268 24.2512 0.41 
103 35 2 25.3057 26.8542 9.31348 -0.82 
104 35 1 24.7049 27.5669 9.80317 0.41 
105 35 1 25.7465 26.4659 10.1958 0.41 
106 36 2 8.16005 4.8685 0.187041 -0.82 
107 36 1 7.92418 5.14628 1.15363 0.41 
108 36 1 7.48781 5.23007 30.4953 0.41 
109 37 2 10.8888 30.4038 23.8263 -0.82 
110 37 1 11.4263 31.0382 24.4485 0.41 
111 37 1 11.4144 29.6549 23.3581 0.41 
112 38 2 13.7981 6.86937 3.35828 -0.82 
113 38 1 13.087 6.16496 3.48296 0.41 
114 38 1 14.1925 7.19502 4.21522 0.41 
115 39 2 2.86447 16.6478 1.54978 -0.82 
116 39 1 2.31981 17.2315 0.853856 0.41 
117 39 1 2.18867 16.1484 2.03259 0.41 
118 40 2 7.66968 0.569555 29.1424 -0.82 
119 40 1 8.27445 -0.258399 29.2295 0.41 
120 40 1 6.72936 0.098741 29.1521 0.41 
121 41 2 7.2215 12.4325 13.6409 -0.82 
122 41 1 7.67334 13.2501 13.1828 0.41 
123 41 1 7.8454 11.7487 14.0386 0.41 
124 42 2 26.3039 21.538 3.48544 -0.82 
125 42 1 25.7662 22.2004 4.02239 0.41 
126 42 1 26.4722 21.9317 2.54303 0.41 
127 43 2 29.9117 24.8123 28.3172 -0.82 
128 43 1 29.2863 24.8681 29.1181 0.41 
129 43 1 29.6619 23.9441 27.8217 0.41 
130 44 2 7.6261 3.71363 5.84533 -0.82 
131 44 1 8.37115 4.31615 6.22494 0.41 
132 44 1 6.7547 4.26901 5.57774 0.41 
133 45 2 22.6531 13.9921 22.7742 -0.82 
134 45 1 22.9763 13.7738 21.7932 0.41 
135 45 1 22.633 15.0239 22.8452 0.41 
136 46 2 14.404 20.4449 17.155 -0.82 
137 46 1 13.8319 21.0338 17.7217 0.41 
138 46 1 15.403 20.7542 17.0606 0.41 
139 47 2 4.85077 4.45805 27.7029 -0.82 
140 47 1 5.83724 4.79422 27.8087 0.41 
141 47 1 4.48631 4.83462 26.7633 0.41 
142 48 2 25.8188 8.7464 25.3128 -0.82 
143 48 1 25.7655 9.67526 24.8624 0.41 
144 48 1 26.6549 8.24322 24.9295 0.41 
145 49 2 19.6315 2.09025 24.3024 -0.82 
146 49 1 19.1126 2.76296 23.801 0.41 
147 49 1 20.5747 2.41981 24.6024 0.41 
148 50 2 25.5118 28.4787 13.7837 -0.82 
149 50 1 24.7432 28.1126 13.2245 0.41 
150 50 1 26.0617 27.6386 14.1164 0.41 
151 51 2 22.5269 8.1376 11.3774 -0.82 
152 51 1 22.1499 9.00545 11.0388 0.41 
153 51 1 21.9959 7.52723 12.037 0.41 
154 52 2 13.346 23.7134 26.4867 -0.82 
155 52 1 13.7284 23.2142 27.3 0.41 
156 52 1 12.8206 23.1629 25.7824 0.41 
157 53 2 23.9655 21.3247 21.522 -0.82 
158 53 1 24.8176 20.7388 21.5604 0.41 
159 53 1 23.2027 20.6944 21.7238 0.41 
160 54 2 27.21 17.3973 15.1349 -0.82 
161 54 1 26.585 17.0583 14.3864 0.41 
162 54 1 27.1088 18.4396 15.1455 0.41 
163 55 2 12.488 0.970421 6.8185 -0.82 
164 55 1 12.4643 0.403807 5.97582 0.41 
165 55 1 11.7831 0.668469 7.49181 0.41 
166 56 2 17.0615 24.5296 30.3581 -0.82 
167 56 1 17.9233 24.7097 29.7828 0.41 
168 56 1 17.0755 25.235 0.137262 0.41 
169 57 2 10.4703 15.9785 28.3384 -0.82 
170 57 1 9.71597 15.9511 29.0969 0.41 
171 57 1 11.1503 15.247 28.4159 0.41 
172 58 2 29.0555 12.4877 19.3679 -0.82 
173 58 1 28.9368 11.6217 18.7795 0.41 
174 58 1 28.6572 13.298 18.924 0.41 
175 59 2 8.14976 11.6804 5.32451 -0.82 
176 59 1 7.49857 12.1621 5.95278 0.41 
177 59 1 9.17781 11.7483 5.67448 0.41 
178 60 2 1.619 5.39118 7.24224 -0.82 
179 60 1 1.11759 6.23058 7.44048 0.41 
180 60 1 2.04163 5.32016 6.3033 0.41 
181 61 2 26.3171 10.9431 2.16082 -0.82 
182 61 1 26.6052 10.0158 1.94329 0.41 
183 61 1 25.6505 11.1798 1.39263 0.41 
184 62 2 10.4098 9.41155 13.328 -0.82 
185 62 1 9.88945 9.17616 12.4536 0.41 
186 62 1 10.6825 10.3916 13.2421 0.41 
187 63 2 15.6156 12.7574 10.0618 -0.82 
188 63 1 14.8917 13.4966 9.96133 0.41 
189 63 1 15.1802 11.8375 9.94065 0.41 
190 64 2 30.5731 6.0441 21.7046 -0.82 
191 64 1 0.591922 5.92155 21.8813 0.41 
192 64 1 30.4407 5.75252 20.7172 0.41 
193 65 2 29.2405 25.1478 20.3113 -0.82 
194 65 1 28.4029 25.5985 19.9948 0.41 
195 65 1 29.9563 25.1019 19.5171 0.41 
196 66 2 0.612866 13.1817 19.2982 -0.82 
197 66 1 0.473213 13.9511 18.6013 0.41 
198 66 1 30.6772 12.6292 19.2329 0.41 
199 67 2 1.29987 27.7619 22.0379 -0.82 
200 67 1 1.44851 28.6849 22.501 0.41 
201 67 1 1.57937 27.0563 22.6964 0.41 
202 68 2 17.5127 15.7428 22.271 -0.82 
203 68 1 17.045 15.4341 21.4372 0.41 
204 68 1 17.3537 14.9791 23.0006 0.41 
205 69 2 2.62334 27.1882 29.2597 -0.82 
206 69 1 2.13365 27.852 29.9096 0.41 
207 69 1 2.37326 26.2055 29.6552 0.41 
208 70 2 20.5612 12.6117 30.7622 -0.82 
209 70 1 20.6771 11.8258 30.0343 0.41 
210 70 1 21.323 12.6687 0.501974 0.41 
211 71 2 11.4994 5.46879 3.48645 -0.82 
212 71 1 11.5652 4.80776 4.27399 0.41 
213 71 1 10.7675 6.15951 3.39136 0.41 
214 72 2 4.88962 30.377 13.4127 -0.82 
215 72 1 4.2049 0.197028 13.3162 0.41 
216 72 1 4.8957 30.2917 14.4445 0.41 
217 73 2 1.2429 25.4735 26.418 -0.82 
218 73 1 0.273024 25.4345 25.9576 0.41 
219 73 1 1.80767 26.0341 25.8104 0.41 
220 74 2 14.6587 12.7821 21.6102 -0.82 
221 74 1 13.8967 12.6364 20.8812 0.41 
222 74 1 14.9947 11.8176 21.7798 0.41 
223 75 2 22.6825 16.9219 1.09895 -0.82 
224 75 1 21.8768 16.5559 0.642058 0.41 
225 75 1 22.4165 17.0694 2.05899 0.41 
226 76 2 18.1604 6.17018 11.008 -0.82 
227 76 1 18.7223 5.41654 10.6704 0.41 
228 76 1 17.8564 5.85133 11.8791 0.41 
229 77 2 1.35453 28.8263 -0.0611829 -0.82 
230 77 1 0.868161 29.3542 30.1785 0.41 
231 77 1 1.13493 29.2639 0.833353 0.41 
232 78 2 26.3454 9.3579 8.12251 -0.82 
233 78 1 27.2819 9.81399 8.1788 0.41 
234 78 1 26.4013 8.41983 8.5908 0.41 
235 79 2 17.8777 13.0438 15.6832 -0.82 
236 79 1 18.8269 12.7176 15.8851 0.41 
237 79 1 17.3165 12.2977 15.2283 0.41 
238 80 2 17.9659 14.1492 7.44692 -0.82 
239 80 1 18.4941 13.3123 7.32432 0.41 
240 80 1 17.0456 14.0377 6.99789 0.41 
241 81 2 17.7581 23.6703 26.2205 -0.82 
242 81 1 18.3472 24.1289 26.95 0.41 
243 81 1 17.4351 22.8055 26.5851 0.41 
244 82 2 19.0321 6.03981 14.989 -0.82 
245 82 1 19.2262 6.78399 15.7303 0.41 
246 82 1 18.0031 5.85624 14.8195 0.41 
247 83 2 6.93269 1.02168 2.23967 -0.82 
248 83 1 6.87614 1.51791 1.30638 0.41 
249 83 1 7.3346 1.63127 3.00147 0.41 
250 84 2 8.92372 8.87988 11.4137 -0.82 
251 84 1 9.00282 8.74433 10.4176 0.41 
252 84 1 8.02692 8.48288 11.631 0.41 
253 85 2 10.7285 5.62055 29.5625 -0.82 
254 85 1 10.412 5.11729 28.6934 0.41 
255 85 1 10.0495 5.38822 30.2663 0.41 
256 86 2 9.90154 12.7979 18.3701 -0.82 
257 86 1 8.97507 13.1647 18.6589 0.41 
258 86 1 9.74664 11.8932 17.9727 0.41 
259 87 2 16.0697 13.5503 17.5092 -0.82 
260 87 1 16.8964 13.0772 17.0015 0.41 
261 87 1 16.0192 14.4908 17.0153 0.41 
262 88 2 8.5768 13.2677 22.2753 -0.82 
263 88 1 9.37709 12.7171 21.877 0.41 
264 88 1 8.98364 14.2129 22.2649 0.41 
265 89 2 19.9152 30.2559 27.9414 -0.82 
266 89 1 20.7992 30.7427 27.7885 0.41 
267 89 1 19.2804 0.021894 28.3312 0.41 
268 90 2 12.2945 7.57055 19.2812 -0.82 
269 90 1 11.6098 7.01304 19.8086 0.41 
270 90 1 11.9871 8.51259 19.5534 0.41 
271 91 2 2.52177 9.1143 30.7121 -0.82 
272 91 1 2.35224 9.96361 30.1374 0.41 
273 91 1 3.30039 8.60831 30.2727 0.41 
274 92 2 19.0492 27.2094 20.6008 -0.82 
275 92 1 18.8465 27.3735 19.6037 0.41 
276 92 1 19.3026 28.1448 20.9347 0.41 
277 93 2 5.85912 17.7515 5.72097 -0.82 
278 93 1 6.37315 18.6226 5.52906 0.41 
279 93 1 6.4778 17.0886 6.23193 0.41 
280 94 2 18.885 9.83533 14.4943 -0.82 
281 94 1 19.5512 10.2834 15.1103 0.41 
282 94 1 19.2753 9.96328 13.5389 0.41 
283 95 2 18.0505 1.49316 14.5617 -0.82 
284 95 1 18.3012 1.37363 13.5682 0.41 
285 95 1 18.6632 2.15795 15.0704 0.41 
286 96 2 26.1922 19.8559 19.2774 -0.82 
287 96 1 25.9631 19.6181 20.2524 0.41 
288 96 1 25.5501 19.3526 18.6912 0.41 
289 97 2 28.9568 30.3875 27.1515 -0.82 
290 97 1 28.5867 0.332376 27.194 0.41 
291 97 1 29.462 30.2651 26.2605 0.41 
292 98 2 23.7189 1.75229 6.70772 -0.82 
293 98 1 22.9169 1.85487 7.39078 0.41 
294 98 1 24.6107 2.24736 6.93692 0.41 
295 99 2 0.473959 12.7964 9.99342 -0.82 
296 99 1 0.298667 13.0599 10.9429 0.41 
297 99 1 0.72048 13.6295 9.4787 0.41 
298 100 2 25.1064 17.4861 17.5449 -0.82 
299 100 1 24.6598 16.9057 16.8325 0.41 
300 100 1 25.7593 18.1367 17.0139 0.41 
301 101 2 11.0559 10.5802 27.3076 -0.82 
302 101 1 10.4211 9.78329 27.4616 0.41 
303 101 1 11.0533 11.1123 28.1858 0.41 
304 102 2 26.3638 19.5925 25.0322 -0.82 
305 102 1 26.9221 19.9372 25.81 0.41 
306 102 1 26.2418 20.494 24.5234 0.41 
307 103 2 16.6484 30.1204 23.5901 -0.82 
308 103 1 17.0356 29.2071 23.533 0.41 
309 103 1 17.1094 30.5418 24.3513 0.41 
310 104 2 21.9011 19.8181 18.0134 -0.82 
311 104 1 21.7308 18.8126 18.2434 0.41 
312 104 1 21.3973 20.1291 17.1964 0.41 
313 105 2 29.5775 16.6243 20.8117 -0.82 
314 105 1 29.8383 15.7738 20.3047 0.41 
315 105 1 29.2775 17.3458 20.2045 0.41 
316 106 2 1.39614 5.51596 10.6614 -0.82 
317 106 1 0.968099 4.6306 10.309 0.41 
318 106 1 2.12764 5.89502 10.0127 0.41 
319 107 2 21.1295 29.236 19.398 -0.82 
320 107 1 21.6957 28.542 19.8826 0.41 
321 107 1 21.697 29.6665 18.5934 0.41 
322 108 2 30.5164 27.5769 27.9605 -0.82 
323 108 1 0.479792 27.4396 27.6523 0.41 
324 108 1 30.2454 26.6028 28.1376 0.41 
325 109 2 19.7535 21.5705 28.5777 -0.82 
326 109 1 20.1727 20.7955 29.0647 0.41 
327 109 1 20.5192 21.8864 27.9517 0.41 
328 110 2 23.5463 8.09078 0.516017 -0.82 
329 110 1 23.544 9.00961 0.163395 0.41 
330 110 1 22.7113 7.92922 1.14632 0.41 
331 111 2 25.5029 2.15741 10.6654 -0.82 
332 111 1 25.5279 1.13041 10.6684 0.41 
333 111 1 26.4457 2.59068 10.3225 0.41 
334 112 2 25.981 16.8405 25.8612 -0.82 
335 112 1 26.4744 17.7636 25.7678 0.41 
336 112 1 25.3578 16.8644 25.0847 0.41 
337 113 2 15.0126 18.1981 7.42274 -0.82 
338 113 1 14.242 17.7345 6.95116 0.41 
339 113 1 14.7666 19.1081 7.71927 0.41 
340 114 2 11.5357 14.8462 5.10505 -0.82 
341 114 1 11.7372 14.8651 4.0907 0.41 
342 114 1 11.9196 15.6421 5.63244 0.41 
343 115 2 8.27478 10.1958 14.73 -0.82 
344 115 1 7.48279 9.89001 14.0812 0.41 
345 115 1 9.20815 9.78071 14.4985 0.41 
346 116 2 2.22452 30.0096 7.63045 -0.82 
347 116 1 2.64231 30.3192 8.5039 0.41 
348 116 1 2.92355 29.3937 7.11576 0.41 
349 117 2 15.8256 28.4484 13.83 -0.82 
350 117 1 15.4696 29.4398 13.8365 0.41 
351 117 1 15.7084 28.0807 14.7744 0.41 
352 118 2 29.4362 18.8044 8.72671 -0.82 
353 118 1 28.8155 19.2232 9.42945 0.41 
354 118 1 29.7358 19.4971 8.02066 0.41 
355 119 2 13.2953 23.5519 8.16983 -0.82 
356 119 1 13.2497 24.4262 7.60102 0.41 
357 119 1 12.6353 22.8922 7.79224 0.41 
358 120 2 27.3801 9.25778 30.2744 -0.82 
359 120 1 27.7241 9.05439 0.226764 0.41 
360 120 1 27.4713 10.253 30.0642 0.41 
361 121 2 18.2907 17.4291 25.8047 -0.82 
362 121 1 18.5981 16.4289 25.8546 0.41 
363 121 1 18.0131 17.693 24.8095 0.41 
364 122 2 29.0622 13.3303 26.7201 -0.82 
365 122 1 29.3438 12.984 25.8074 0.41 
366 122 1 29.874 13.5388 27.2919 0.41 
367 123 2 17.58 18.1312 15.7179 -0.82 
368 123 1 16.8673 18.7174 15.2274 0.41 
369 123 1 18.4827 18.3228 15.245 0.41 
370 124 2 29.388 0.767423 24.5196 -0.82 
371 124 1 29.2912 0.0867379 23.7251 0.41 
372 124 1 30.2992 0.743239 24.9299 0.41 
373 125 2 26.9418 22.9449 1.05265 -0.82 
374 125 1 27.7549 23.1834 1.61517 0.41 
375 125 1 27.2537 22.2956 0.319651 0.41 
376 126 2 24.6069 3.79591 19.2027 -0.82 
377 126 1 24.1095 3.11587 19.815 0.41 
378 126 1 23.8883 4.20268 18.686 0.41 
379 127 2 25.8589 19.4454 21.9653 -0.82 
380 127 1 26.5333 19.9413 22.4891 0.41 
381 127 1 25.6033 18.6219 22.5555 0.41 
382 128 2 1.24953 22.7891 27.3978 -0.82 
383 128 1 1.80031 22.2719 26.7131 0.41 
384 128 1 1.22034 23.6564 26.8509 0.41 
385 129 2 0.785752 19.1177 27.1922 -0.82 
386 129 1 0.518311 18.2436 27.6844 0.41 
387 129 1 0.326348 19.1439 26.2677 0.41 
388 130 2 19.4596 15.8042 2.32965 -0.82 
389 130 1 19.2705 16.7559 2.65563 0.41 
390 130 1 19.9074 15.7596 1.41868 0.41 
391 131 2 14.242 13.7766 12.8107 -0.82 
392 131 1 13.889 13.707 13.7407 0.41 
393 131 1 13.9551 12.8482 12.3936 0.41 
394 132 2 5.95823 23.9997 29.001 -0.82 
395 132 1 5.4077 24.6644 28.3387 0.41 
396 132 1 6.91431 24.2239 29.2116 0.41 
397 133 2 18.0932 21.8864 30.8159 -0.82 
398 133 1 18.6294 21.8258 29.9351 0.41 
399 133 1 17.6589 22.8563 -0.28875 0.41 
400 134 2 2.51984 21.2044 11.1899 -0.82 
401 134 1 3.38783 20.8772 11.6549 0.41 
402 134 1 1.75776 20.7336 11.7572 0.41 
403 135 2 9.03004 1.26734 17.0314 -0.82 
404 135 1 9.62478 1.83437 17.6394 0.41 
405 135 1 8.61645 1.8326 16.2829 0.41 
406 136 2 9.39037 23.5554 10.9063 -0.82 
407 136 1 8.69964 24.0623 11.5708 0.41 
408 136 1 8.98571 22.582 10.8179 0.41 
409 137 2 15.9231 21.0532 2.39073 -0.82 
410 137 1 16.1894 20.1832 1.91324 0.41 
411 137 1 16.8152 21.5449 2.61283 0.41 
412 138 2 20.2525 19.6508 10.0507 -0.82 
413 138 1 19.5189 19.5096 9.38264 0.41 
414 138 1 20.0558 20.5852 10.5053 0.41 
415 139 2 22.6458 13.4004 27.4216 -0.82 
416 139 1 22.7798 14.1619 28.1499 0.41 
417 139 1 23.3358 13.6609 26.6231 0.41 
418 140 2 14.8107 1.75994 20.4104 -0.82 
419 140 1 14.0691 1.0671 20.5156 0.41 
420 140 1 15.5647 1.52956 21.0838 0.41 
421 141 2 1.4274 11.8799 14.138 -0.82 
422 141 1 0.934091 11.0142 14.2939 0.41 
423 141 1 0.84748 12.426 13.5127 0.41 
424 142 2 15.8761 27.717 16.7687 -0.82 
425 142 1 15.7387 26.7929 17.2195 0.41 
426 142 1 15.6892 28.2683 17.5776 0.41 
427 143 2 20.0946 9.01682 4.67463 -0.82 
428 143 1 19.8777 8.87137 3.68113 0.41 
429 143 1 20.1983 10.0814 4.67933 0.41 
430 144 2 23.5461 24.4647 14.6396 -0.82 
431 144 1 23.113 24.9909 13.815 0.41 
432 144 1 23.2033 24.9948 15.4198 0.41 
433 145 2 3.26826 11.759 16.1358 -0.82 
434 145 1 3.3707 10.7301 16.2355 0.41 
435 145 1 2.63134 11.9488 15.3951 0.41 
436 146 2 23.4018 20.5092 28.1953 -0.82 
437 146 1 24.385 20.8952 28.321 0.41 
438 146 1 22.9084 21.0983 27.555 0.41 
439 147 2 2.87105 2.9331 24.6039 -0.82 
440 147 1 1.95799 3.03277 25.0428 0.41 
441 147 1 3.38837 3.78793 24.7026 0.41 
442 148 2 30.2854 11.8116 29.0621 -0.82 
443 148 1 -0.370522 11.1873 28.3876 0.41 
444 148 1 30.9228 12.6403 28.9414 0.41 
445 149 2 4.80414 4.12355 3.49386 -0.82 
446 149 1 5.26792 4.53854 2.66177 0.41 
447 149 1 5.15021 4.53801 4.38726 0.41 
448 150 2 26.3981 7.64524 15.442 -0.82 
449 150 1 26.5042 8.41615 14.7048 0.41 
450 150 1 25.4407 7.27054 15.3389 0.41 
451 151 2 18.931 6.44066 18.5126 -0.82 
452 151 1 18.9678 6.96659 19.3964 0.41 
453 151 1 19.3164 6.96964 17.7361 0.41 
454 152 2 6.92648 13.9446 27.55 -0.82 
455 152 1 7.37537 13.8057 26.6545 0.41 
456 152 1 7.57771 13.5997 28.2949 0.41 
457 153 2 17.7043 23.5546 9.26218 -0.82 
458 153 1 16.8699 23.2238 8.73826 0.41 
459 153 1 17.5315 24.1882 9.99264 0.41 
460 154 2 30.7242 20.0165 3.70562 -0.82 
461 154 1 30.8395 20.8599 4.2835 0.41 
462 154 1 0.577568 19.5172 4.09592 0.41 
463 155 2 23.6458 6.92163 14.5272 -0.82 
464 155 1 22.8582 6.78753 13.912 0.41 
465 155 1 23.4321 6.60023 15.5033 0.41 
466 156 2 22.786 27.6623 12.9676 -0.82 
467 156 1 22.8214 26.6444 12.8583 0.41 
468 156 1 22.1186 27.7205 13.7764 0.41 
469 157 2 4.87095 10.8295 12.7681 -0.82 
470 157 1 5.63743 11.4379 13.0963 0.41 
471 157 1 4.43263 10.2733 13.551 0.41 
472 158 2 26.2814 25.3766 23.9463 -0.82 
473 158 1 26.1098 25.4902 22.928 0.41 
474 158 1 25.8896 26.0944 24.5498 0.41 
475 159 2 7.09746 29.9869 26.3899 -0.82 
476 159 1 6.12793 29.957 26.4729 0.41 
477 159 1 7.35356 30.7997 26.9095 0.41 
478 160 2 29.609 20.2341 22.6576 -0.82 
479 160 1 29.56 20.2484 21.6511 0.41 
480 160 1 30.3528 20.8966 22.9356 0.41 
481 161 2 8.61568 4.59658 13.7342 -0.82 
482 161 1 8.1291 3.83006 14.0588 0.41 
483 161 1 8.10964 5.09821 12.9659 0.41 
484 162 2 2.21941 4.70514 4.44294 -0.82 
485 162 1 3.19433 4.30589 4.31301 0.41 
486 162 1 1.6165 4.40722 3.67684 0.41 
487 163 2 16.5768 24.904 11.4111 -0.82 
488 163 1 17.0744 25.8305 11.6121 0.41 
489 163 1 16.3504 24.4919 12.292 0.41 
490 164 2 19.3721 13.2088 12.6728 -0.82 
491 164 1 18.8133 13.9001 13.2105 0.41 
492 164 1 19.0632 13.2899 11.6818 0.41 
493 165 2 15.8884 30.6386 9.75722 -0.82 
494 165 1 16.4455 30.3974 8.91595 0.41 
495 165 1 14.8722 30.2928 9.67408 0.41 
496 166 2 15.4357 16.1013 12.9417 -0.82 
497 166 1 15.4057 16.4669 11.974 0.41 
498 166 1 15.1614 15.1099 12.9328 0.41 
499 167 2 30.316 7.60191 16.0198 -0.82 
500 167 1 29.5139 6.90402 15.9777 0.41 
501 167 1 30.6545 7.67019 16.9562 0.41 
502 168 2 25.7053 28.2138 1.34546 -0.82 
503 168 1 25.5719 28.691 2.26236 0.41 
504 168 1 26.1692 28.9727 0.787056 0.41 
505 169 2 7.15789 12.3571 10.515 -0.82 
506 169 1 7.55417 13.0537 11.1798 0.41 
507 169 1 7.62572 12.3693 9.60042 0.41 
508 170 2 28.1868 21.1159 30.3277 -0.82 
509 170 1 28.0809 20.1231 30.5149 0.41 
510 170 1 29.1173 21.2932 29.9398 0.41 
511 171 2 2.41864 17.274 16.2536 -0.82 
512 171 1 3.08755 16.5224 16.1027 0.41 
513 171 1 2.88093 18.144 16.5808 0.41 
514 172 2 1.98297 30.3194 23.0448 -0.82 
515 172 1 1.69383 31.0738 22.3538 0.41 
516 172 1 1.44379 30.4539 23.9118 0.41 
517 173 2 27.0674 22.3171 17.48 -0.82 
518 173 1 27.965 22.7547 17.5512 0.41 
519 173 1 26.8395 22.6163 16.4883 0.41 
520 174 2 13.9562 21.7414 0.207125 -0.82 
521 174 1 14.6479 21.594 0.935985 0.41 
522 174 1 13.6587 20.7913 30.8774 0.41 
523 175 2 8.06101 17.4674 25.9187 -0.82 
524 175 1 8.72344 18.1825 26.254 0.41 
525 175 1 8.54903 16.6375 25.756 0.41 
526 176 2 14.7443 24.0255 22.2943 -0.82 
527 176 1 13.9372 24.5899 22.4976 0.41 
528 176 1 15.2058 23.8763 23.1845 0.41 
529 177 2 20.9138 6.10342 29.156 -0.82 
530 177 1 20.3872 5.40124 28.5397 0.41 
531 177 1 21.7284 5.71763 29.6615 0.41 
532 178 2 26.8219 30.0538 20.9493 -0.82 
533 178 1 26.4313 30.6279 20.1926 0.41 
534 178 1 26.8128 29.0938 20.5857 0.41 
535 179 2 22.6342 3.00953 3.02296 -0.82 
536 179 1 23.5526 2.8724 2.61476 0.41 
537 179 1 21.9981 3.35562 2.34647 0.41 
538 180 2 26.3641 19.7642 16.4116 -0.82 
539 180 1 25.8471 20.1088 15.6129 0.41 
540 180 1 26.4985 20.5786 17.0517 0.41 
541 181 2 19.0473 25.1087 28.5605 -0.82 
542 181 1 18.8975 26.1129 28.5215 0.41 
543 181 1 20.0452 25.0049 28.4762 0.41 
544 182 2 4.72794 7.2135 1.76863 -0.82 
545 182 1 5.09888 7.12548 0.843698 0.41 
546 182 1 3.71886 7.47363 1.70942 0.41 
547 183 2 4.48836 24.692 4.57704 -0.82 
548 183 1 4.43067 25.1465 3.65031 0.41 
549 183 1 5.45626 24.431 4.62479 0.41 
550 184 2 15.8374 22.2511 7.4272 -0.82 
551 184 1 15.3925 22.93 6.80096 0.41 
552 184 1 16.5776 21.8762 6.85525 0.41 
553 185 2 19.2056 27.8857 18.0792 -0.82 
554 185 1 20.1186 28.2468 18.377 0.41 
555 185 1 18.7148 28.5842 17.5198 0.41 
556 186 2 4.5322 6.89733 10.0654 -0.82 
557 186 1 4.20163 6.97751 11.0353 0.41 
558 186 1 4.76121 7.88532 9.80538 0.41 
559 187 2 24.9061 3.28311 28.2152 -0.82 
560 187 1 24.9892 3.64837 29.1366 0.41 
561 187 1 25.5761 3.70354 27.5351 0.41 
562 188 2 25.9791 12.2384 19.1285 -0.82 
563 188 1 26.5807 13.0357 18.7292 0.41 
564 188 1 25.6098 11.6973 18.3226 0.41 
565 189 2 8.36374 19.2339 29.2275 -0.82 
566 189 1 8.7476 20.2483 29.1188 0.41 
567 189 1 8.99761 18.6444 28.7354 0.41 
568 190 2 13.2563 17.6608 25.8737 -0.82 
569 190 1 13.0495 17.3693 24.8937 0.41 
570 190 1 13.7394 18.5354 25.8655 0.41 
571 191 2 26.1296 10.5006 11.9388 -0.82 
572 191 1 26.0013 11.4683 11.5456 0.41 
573 191 1 25.2962 9.97955 11.6447 0.41 
574 192 2 14.5686 5.69225 19.2665 -0.82 
575 192 1 13.85 6.39503 19.1454 0.41 
576 192 1 15.1857 5.92308 18.473 0.41 
577 193 2 8.31937 21.0527 10.7545 -0.82 
578 193 1 7.3632 20.8352 11.1713 0.41 
579 193 1 9.00944 21.0293 11.5317 0.41 
580 194 2 23.5057 19.3109 25.4494 -0.82 
581 194 1 24.3846 18.9657 25.0324 0.41 
582 194 1 23.1275 20.12 24.9442 0.41 
583 195 2 22.0459 11.1693 21.0112 -0.82 
584 195 1 22.7517 11.7544 20.5597 0.41 
585 195 1 22.0036 11.3344 22.0345 0.41 
586 196 2 8.86508 10.5434 3.0924 -0.82 
587 196 1 8.16277 10.9777 2.49026 0.41 
588 196 1 8.59415 10.9908 4.01501 0.41 
589 197 2 8.28683 3.24497 3.25786 -0.82 
590 197 1 8.33268 4.14268 2.78768 0.41 
591 197 1 7.73179 3.24888 4.14033 0.41 
592 198 2 5.17415 26.3079 14.9658 -0.82 
593 198 1 6.07242 26.8518 14.893 0.41 
594 198 1 4.53224 26.6131 14.2225 0.41 
595 199 2 17.0328 13.6481 23.8602 -0.82 
596 199 1 16.5406 13.4759 24.778 0.41 
597 199 1 17.2203 12.6547 23.5369 0.41 
598 200 2 7.00768 15.916 9.97135 -0.82 
599 200 1 7.37376 16.0878 9.05922 0.41 
600 200 1 6.0251 15.5719 9.77877 0.41 
601 201 2 24.6161 24.0406 0.365132 -0.82 
602 201 1 25.0006 24.8265 -0.208907 0.41 
603 201 1 25.3991 23.5592 0.831208 0.41 
604 202 2 2.23509 22.2852 1.96128 -0.82 
605 202 1 1.47763 21.7735 1.4511 0.41 
606 202 1 2.78692 22.739 1.22153 0.41 
607 203 2 12.2765 8.81183 1.78709 -0.82 
608 203 1 12.7947 8.22827 2.46255 0.41 
609 203 1 11.9691 9.59758 2.37154 0.41 
610 204 2 21.4819 26.6493 3.19122 -0.82 
611 204 1 21.9176 27.5743 3.39749 0.41 
612 204 1 22.2425 25.9537 3.048 0.41 
613 205 2 21.6438 11.2347 26.2527 -0.82 
614 205 1 20.6797 11.3989 26.4641 0.41 
615 205 1 22.1685 11.9402 26.7678 0.41 
616 206 2 27.6771 16.9968 5.19561 -0.82 
617 206 1 27.7103 17.8347 4.57406 0.41 
618 206 1 27.5798 16.1575 4.60747 0.41 
619 207 2 29.3081 10.1281 8.54289 -0.82 
620 207 1 29.474 10.1593 7.55386 0.41 
621 207 1 29.955 9.54288 8.95719 0.41 
622 208 2 8.45588 18.687 15.9259 -0.82 
623 208 1 7.81102 19.001 15.2162 0.41 
624 208 1 8.63526 19.4796 16.5741 0.41 
625 209 2 6.15209 12.7184 23.0408 -0.82 
626 209 1 7.11055 13.103 22.8666 0.41 
627 209 1 5.83996 12.4102 22.1272 0.41 
628 210 2 6.69889 19.4174 13.9882 -0.82 
629 210 1 6.0942 19.0561 13.3005 0.41 
630 210 1 6.71957 20.4188 13.8703 0.41 
631 211 2 4.95898 15.5293 30.6934 -0.82 
632 211 1 4.42773 16.0317 0.452154 0.41 
633 211 1 5.38507 16.2515 30.1692 0.41 
634 212 2 20.5898 14.3628 4.93265 -0.82 
635 212 1 21.4634 14.2519 5.42239 0.41 
636 212 1 20.49 15.3226 4.61655 0.41 
637 213 2 11.8725 3.51658 5.47768 -0.82 
638 213 1 12.076 4.33562 6.08515 0.41 
639 213 1 11.9547 2.62719 5.96741 0.41 
640 214 2 4.09407 22.0717 15.735 -0.82 
641 214 1 4.69584 22.8009 16.0935 0.41 
642 214 1 3.08314 22.3082 15.8109 0.41 
643 215 2 26.946 25.8895 14.4058 -0.82 
644 215 1 26.6909 24.961 14.7637 0.41 
645 215 1 27.2422 26.5055 15.1216 0.41 
646 216 2 30.7819 12.6905 6.04505 -0.82 
647 216 1 30.2934 13.1664 6.83118 0.41 
648 216 1 0.804159 12.6692 6.12204 0.41 
649 217 2 6.49132 2.73751 11.6712 -0.82 
650 217 1 7.37307 2.192 11.5965 0.41 
651 217 1 5.81207 2.32661 11.002 0.41 
652 218 2 0.354819 8.8552 18.5155 -0.82 
653 218 1 30.7227 8.67927 19.3098 0.41 
654 218 1 1.33315 8.56969 18.8222 0.41 
655 219 2 9.26206 15.1381 25.7705 -0.82 
656 219 1 9.56862 14.2149 25.4378 0.41 
657 219 1 9.81698 15.3854 26.5684 0.41 
658 220 2 28.4479 13.0812 1.37976 -0.82 
659 220 1 29.0605 12.3332 1.63835 0.41 
660 220 1 27.885 12.7045 0.594593 0.41 
661 221 2 22.8638 12.9348 16.6946 -0.82 
662 221 1 23.292 12.0383 16.9062 0.41 
663 221 1 23.5709 13.5929 16.3754 0.41 
664 222 2 17.7107 29.4171 16.2976 -0.82 
665 222 1 17.2395 30.2759 16.1431 0.41 
666 222 1 17.0448 28.6434 16.3645 0.41 
667 223 2 11.5955 21.7293 6.67945 -0.82 
668 223 1 11.4548 20.7667 6.95142 0.41 
669 223 1 10.8297 22.2834 7.0541 0.41 
670 224 2 14.9368 2.32761 6.32302 -0.82 
671 224 1 14.2606 1.6109 6.39284 0.41 
672 224 1 15.097 2.58528 5.34491 0.41 
673 225 2 27.6187 5.30814 0.982665 -0.82 
674 225 1 27.4177 5.29387 2.01423 0.41 
675 225 1 28.2856 6.04135 0.68035 0.41 
676 226 2 13.6421 24.3591 10.6581 -0.82 
677 226 1 13.5334 24.0845 9.62635 0.41 
678 226 1 14.6275 24.4403 10.9439 0.41 
679 227 2 -0.10292 10.6917 22.2989 -0.82 
680 227 1 0.721403 10.1216 22.5193 0.41 
681 227 1 0.367894 11.6676 22.2358 0.41 
682 228 2 11.8118 27.7852 29.9599 -0.82 
683 228 1 11.8173 27.6866 28.9418 0.41 
684 228 1 12.5521 27.1578 30.2611 0.41 
685 229 2 4.95394 16.4905 22.0935 -0.82 
686 229 1 5.01029 17.0224 22.9481 0.41 
687 229 1 5.77438 16.7654 21.5499 0.41 
688 230 2 15.2891 16.845 10.161 -0.82 
689 230 1 15.1571 17.3126 9.24157 0.41 
690 230 1 15.9562 17.5312 10.5807 0.41 
691 231 2 29.0651 10.6108 5.72497 -0.82 
692 231 1 28.3507 11.1436 5.23563 0.41 
693 231 1 29.7362 11.4339 5.81668 0.41 
694 232 2 6.40401 4.74412 25.0129 -0.82 
695 232 1 6.72128 3.77844 24.7779 0.41 
696 232 1 5.5146 5.01941 24.6403 0.41 
697 233 2 8.66203 23.5395 14.774 -0.82 
698 233 1 8.41098 24.2549 15.4609 0.41 
699 233 1 8.58606 24.0356 13.9099 0.41 
700 234 2 25.7509 4.82913 21.3769 -0.82 
701 234 1 25.5964 4.56972 20.4202 0.41 
702 234 1 25.3763 5.79791 21.4281 0.41 
703 235 2 1.76553 7.02079 26.3672 -0.82 
704 235 1 2.18811 7.96196 26.4435 0.41 
705 235 1 1.36137 7.00406 27.3278 0.41 
706 236 2 15.9338 0.534303 15.8808 -0.82 
707 236 1 16.6613 1.08269 15.3923 0.41 
708 236 1 15.8025 1.1523 16.7332 0.41 
709 237 2 22.9746 10.8848 5.98595 -0.82 
710 237 1 23.9939 10.8562 5.9379 0.41 
711 237 1 22.6172 10.3661 5.20169 0.41 
712 238 2 21 30.7592 11.5028 -0.82 
713 238 1 20.1218 30.3398 11.8984 0.41 
714 238 1 21.1908 30.107 10.6904 0.41 
715 239 2 7.169 11.7507 1.08347 -0.82 
716 239 1 6.34868 11.4522 0.520213 0.41 
717 239 1 6.75623 12.5263 1.67368 0.41 
718 240 2 13.1722 18.1305 11.6612 -0.82 
719 240 1 12.5282 18.4621 10.9805 0.41 
720 240 1 12.8617 17.4936 12.3516 0.41 
721 241 2 9.65661 0.782945 21.8874 -0.82 
722 241 1 9.78865 0.0735544 22.6659 0.41 
723 241 1 9.0053 1.47064 22.2175 0.41 
724 242 2 15.5993 19.4034 14.4168 -0.82 
725 242 1 15.0717 18.5555 14.7058 0.41 
726 242 1 14.8492 20.1368 14.3725 0.41 
727 243 2 25.9003 30.2476 25.066 -0.82 
728 243 1 25.4976 30.8607 25.798 0.41 
729 243 1 26.8263 30.4732 24.8384 0.41 
730 244 2 24.7151 30.8369 14.3122 -0.82 
731 244 1 25.1461 29.9457 14.2131 0.41 
732 244 1 23.741 30.723 14.7058 0.41 
733 245 2 31.0301 9.50579 14.1049 -0.82 
734 245 1 30.1128 9.58229 13.6941 0.41 
735 245 1 30.8134 8.89533 14.8666 0.41 
736 246 2 13.5389 14.9688 10.4096 -0.82 
737 246 1 13.8094 14.7048 11.4035 0.41 
738 246 1 14.2383 15.686 10.2023 0.41 
739 247 2 21.3852 10.6423 9.77862 -0.82 
740 247 1 20.951 11.4381 9.27796 0.41 
741 247 1 22.4154 10.5117 9.5295 0.41 
742 248 2 0.147389 15.3253 17.8883 -0.82 
743 248 1 0.348929 16.2184 18.2553 0.41 
744 248 1 30.6311 15.3971 16.9932 0.41 
745 249 2 12.4669 12.4285 20.0663 -0.82 
746 249 1 12.0899 11.4844 20.0517 0.41 
747 249 1 11.7689 12.8586 19.4716 0.41 
748 250 2 16.3475 0.617154 12.132 -0.82 
749 250 1 16.4252 0.284647 11.1459 0.41 
750 250 1 15.5791 0.125753 12.527 0.41 
751 251 2 4.70244 24.2376 12.2783 -0.82 
752 251 1 4.79751 25.2691 12.1197 0.41 