ITEM: TIMESTEP
350000
ITEM: NUMBER OF ATOMS
3000
ITEM: BOX BOUNDS pp pp pp
0.0000000000000000e+00 3.1000000000000000e+01
0.0000000000000000e+00 3.1000000000000000e+01
0.0000000000000000e+00 3.1000000000000000e+01
ITEM: ATOMS id mol type x y z q 
1 1 2 16.7224 30.1982 7.11315 -0.82 
2 1 1 17.5874 29.5756 6.9785 0.41 
3 1 1 16.9155 0.211732 6.83212 0.41 
4 2 2 25.0986 7.31599 12.2263 -0.82 
5 2 1 24.8123 7.20474 13.2068 0.41 
6 2 1 24.3328 7.81681 11.7827 0.41 
7 3 2 4.23405 10.5228 3.47324 -0.82 
8 3 1 3.25207 10.7469 3.30019 0.41 
9 3 1 4.62467 11.4044 3.1515 0.41 
10 4 2 12.4657 30.9777 20.8324 -0.82 
11 4 1 11.7466 0.659135 21.0351 0.41 
12 4 1 12.5191 30.2236 21.5376 0.41 
13 5 2 21.3484 30.9009 6.46674 -0.82 
14 5 1 22.0187 30.087 6.42597 0.41 
15 5 1 21.5494 0.458408 7.31161 0.41 
16 6 2 15.0499 28.4645 29.7805 -0.82 
17 6 1 14.9623 29.0358 30.6645 0.41 
18 6 1 14.643 27.5151 29.8277 0.41 
19 7 2 10.908 12.3207 29.7451 -0.82 
20 7 1 9.95333 12.1802 29.5123 0.41 
21 7 1 11.3141 13.1646 29.3421 0.41 
22 8 2 26.2978 23.4576 27.6757 -0.82 
23 8 1 26.5934 24.2663 28.209 0.41 
24 8 1 26.6304 23.7029 26.718 0.41 
25 9 2 4.42229 9.56134 18.3024 -0.82 
26 9 1 3.63042 9.08674 18.8603 0.41 
27 9 1 3.92508 10.2254 17.6557 0.41 
28 10 2 29.6708 9.46645 25.3784 -0.82 
29 10 1 29.125 9.2471 26.2966 0.41 
30 10 1 30.1564 8.58718 25.0109 0.41 
31 11 2 2.75101 13.9886 29.4881 -0.82 
32 11 1 3.44045 14.4711 30.1172 0.41 
33 11 1 3.27439 13.9347 28.6166 0.41 
34 12 2 16.0524 7.24859 17.3607 -0.82 
35 12 1 17.0509 6.98988 17.6886 0.41 
36 12 1 16.1504 7.468 16.3428 0.41 
37 13 2 13.8803 26.4788 12.603 -0.82 
38 13 1 14.71 26.9779 12.8267 0.41 
39 13 1 13.9668 25.6405 11.9667 0.41 
40 14 2 13.5183 17.2953 1.66095 -0.82 
41 14 1 13.8213 18.1162 1.09363 0.41 
42 14 1 12.6475 17.5492 2.2154 0.41 
43 15 2 28.2258 19.5651 12.5532 -0.82 
44 15 1 28.5608 20.3994 13.1666 0.41 
45 15 1 28.7279 18.6934 12.8056 0.41 
46 16 2 9.79974 19.182 27.0686 -0.82 
47 16 1 10.7576 18.893 27.4184 0.41 
48 16 1 9.74923 20.1846 27.1184 0.41 
49 17 2 19.5657 23.1184 17.7127 -0.82 
50 17 1 19.687 22.3375 16.9474 0.41 
51 17 1 18.8877 23.8041 17.3022 0.41 
52 18 2 29.6521 6.60934 12.7085 -0.82 
53 18 1 29.5693 6.42574 13.7104 0.41 
54 18 1 30.4712 6.04667 12.3421 0.41 
55 19 2 8.62522 21.5087 18.197 -0.82 
56 19 1 9.30808 21.6323 18.9492 0.41 
57 19 1 7.86011 20.9205 18.5786 0.41 
58 20 2 23.4754 22.153 19.1096 -0.82 
59 20 1 23.594 21.7897 20.0468 0.41 
60 20 1 22.7049 21.486 18.7007 0.41 
61 21 2 10.2986 21.6979 20.057 -0.82 
62 21 1 10.6433 20.7844 20.4115 0.41 
63 21 1 10.8521 22.4778 20.4513 0.41 
64 22 2 23.6447 21.421 9.26071 -0.82 
65 22 1 22.8815 21.0186 8.77537 0.41 
66 22 1 24.3447 20.6085 9.38097 0.41 
67 23 2 5.04432 15.0056 8.9118 -0.82 
68 23 1 4.38489 14.4171 9.5066 0.41 
69 23 1 4.45302 15.7329 8.43423 0.41 
70 24 2 7.20696 2.63412 21.5669 -0.82 
71 24 1 7.34704 1.83384 20.9435 0.41 
72 24 1 7.40567 2.35278 22.5862 0.41 
73 25 2 27.9705 9.31516 27.5519 -0.82 
74 25 1 27.1505 9.23748 26.9112 0.41 
75 25 1 27.7012 9.81638 28.4041 0.41 
76 26 2 27.2896 6.87135 8.52352 -0.82 
77 26 1 26.4607 6.44485 8.13866 0.41 
78 26 1 27.4873 6.62299 9.49587 0.41 
79 27 2 10.772 17.1497 16.9497 -0.82 
80 27 1 11.7373 17.5408 16.8785 0.41 
81 27 1 10.1298 17.8941 16.7433 0.41 
82 28 2 10.3951 6.38621 21.0809 -0.82 
83 28 1 10.1187 5.48138 20.8718 0.41 
84 28 1 10.4415 6.59563 22.1029 0.41 
85 29 2 28.5428 27.6609 16.3171 -0.82 
86 29 1 27.8762 28.4063 16.3509 0.41 
87 29 1 28.3651 26.9655 17.0369 0.41 
88 30 2 18.6272 24.7331 21.6699 -0.82 
89 30 1 18.7228 25.7274 21.341 0.41 
90 30 1 17.9817 24.2199 20.9759 0.41 
91 31 2 30.7966 27.2805 18.7392 -0.82 
92 31 1 30.168 28.14 18.5032 0.41 
93 31 1 0.745218 27.7044 18.5875 0.41 
94 32 2 14.8637 3.87982 21.7818 -0.82 
95 32 1 14.0293 4.39891 21.7769 0.41 
96 32 1 14.7721 3.00278 21.1642 0.41 
97 33 2 14.151 20.3197 21.7199 -0.82 
98 33 1 13.2218 20.1019 22.0666 0.41 
99 33 1 14.0462 21.0897 21.0257 0.41 
100 34 2 3.88393 14.024 24.4479 -0.82 
101 34 1 4.26294 13.0436 24.5052 0.41 
102 34 1 4.58703 14.6073 24.0371 0.41 
103 35 2 25.3457 26.9129 9.69622 -0.82 
104 35 1 24.4875 27.5446 9.69583 0.41 
105 35 1 25.4624 26.588 10.713 0.41 
106 36 2 8.38618 5.13137 30.7724 -0.82 
107 36 1 7.99165 5.55101 0.645128 0.41 
108 36 1 7.8434 5.7224 30.1475 0.41 
109 37 2 10.8543 30.9136 23.7351 -0.82 
110 37 1 11.6218 0.230612 24.3667 0.41 
111 37 1 11.4044 30.2817 23.1674 0.41 
112 38 2 13.5454 6.39973 3.09896 -0.82 
113 38 1 12.5649 6.20103 3.18017 0.41 
114 38 1 13.8183 6.63036 4.06146 0.41 
115 39 2 2.90798 16.5859 1.8824 -0.82 
116 39 1 2.58559 17.0368 1.01777 0.41 
117 39 1 2.06422 16.1544 2.20824 0.41 
118 40 2 7.42738 0.779527 29.0867 -0.82 
119 40 1 8.30577 0.301474 29.3182 0.41 
120 40 1 6.61727 0.151171 28.9173 0.41 
121 41 2 6.88114 12.5447 13.8258 -0.82 
122 41 1 7.53084 13.0812 13.2314 0.41 
123 41 1 7.53595 11.8605 14.2003 0.41 
124 42 2 26.2327 21.1884 3.16745 -0.82 
125 42 1 26.0455 21.9286 3.83419 0.41 
126 42 1 26.4552 21.5376 2.2186 0.41 
127 43 2 29.7477 24.5555 28.5914 -0.82 
128 43 1 29.3675 24.7016 29.5552 0.41 
129 43 1 29.3267 23.8049 28.0777 0.41 
130 44 2 7.938 4.02393 5.71579 -0.82 
131 44 1 8.70522 4.71321 5.81355 0.41 
132 44 1 7.04625 4.62112 5.77032 0.41 
133 45 2 23.1235 14.2751 22.9499 -0.82 
134 45 1 23.4663 13.8292 22.0528 0.41 
135 45 1 22.6529 15.1648 22.6327 0.41 
136 46 2 14.421 20.6375 17.5693 -0.82 
137 46 1 14.2007 21.2919 18.3494 0.41 
138 46 1 15.3551 20.9895 17.3353 0.41 
139 47 2 4.87896 4.24885 27.9413 -0.82 
140 47 1 5.86979 4.54678 28.0758 0.41 
141 47 1 4.70969 4.39605 26.894 0.41 
142 48 2 26.0646 8.94092 25.5677 -0.82 
143 48 1 25.7792 9.58249 24.7728 0.41 
144 48 1 26.8748 8.42695 25.1605 0.41 
145 49 2 20.0326 1.99474 24.3795 -0.82 
146 49 1 19.6344 2.66354 23.7296 0.41 
147 49 1 20.9588 2.37712 24.6398 0.41 
148 50 2 25.2503 27.9535 13.6354 -0.82 
149 50 1 24.276 27.7777 13.3756 0.41 
150 50 1 25.6957 27.0578 13.9876 0.41 
151 51 2 22.6129 8.36117 11.6543 -0.82 
152 51 1 22.6814 9.19109 12.2903 0.41 
153 51 1 21.7817 7.87652 12.0035 0.41 
154 52 2 13.7377 23.7757 26.9704 -0.82 
155 52 1 14.0711 23.5941 27.9349 0.41 
156 52 1 13.6821 22.9084 26.5399 0.41 
157 53 2 23.8846 20.9923 21.6113 -0.82 
158 53 1 24.6725 20.3245 21.7575 0.41 
159 53 1 23.0958 20.3198 21.4598 0.41 
160 54 2 27.0936 17.398 14.8237 -0.82 
161 54 1 26.3735 16.7045 14.4463 0.41 
162 54 1 26.9716 18.3326 14.4182 0.41 
163 55 2 12.4024 1.22218 6.51306 -0.82 
164 55 1 12.3881 0.733407 5.62753 0.41 
165 55 1 11.5898 0.698574 6.93858 0.41 
166 56 2 17.1692 24.1087 30.745 -0.82 
167 56 1 18.0071 24.3607 30.1591 0.41 
168 56 1 16.8094 24.8964 0.375222 0.41 
169 57 2 10.1515 15.491 28.0744 -0.82 
170 57 1 9.70139 15.4582 29.0212 0.41 
171 57 1 11.0323 14.9709 28.2216 0.41 
172 58 2 29.1323 12.3653 19.5001 -0.82 
173 58 1 29.1826 11.6008 18.7925 0.41 
174 58 1 28.7799 13.2001 19.0448 0.41 
175 59 2 8.16753 12.0338 5.38692 -0.82 
176 59 1 7.42576 12.2662 6.08636 0.41 
177 59 1 9.11114 11.9041 5.84199 0.41 
178 60 2 1.21754 4.89086 6.92411 -0.82 
179 60 1 1.0491 5.80358 7.32342 0.41 
180 60 1 1.7098 5.06125 6.02701 0.41 
181 61 2 25.9021 10.9406 2.22428 -0.82 
182 61 1 26.5853 10.2049 2.09117 0.41 
183 61 1 25.3362 10.9705 1.36226 0.41 
184 62 2 10.5443 9.55896 13.4026 -0.82 
185 62 1 9.90595 9.30022 12.6112 0.41 
186 62 1 10.901 10.5142 13.136 0.41 
187 63 2 15.1988 12.513 9.56824 -0.82 
188 63 1 14.3745 12.9009 10.0706 0.41 
189 63 1 14.969 11.5697 9.32602 0.41 
190 64 2 30.4532 6.34155 21.6198 -0.82 
191 64 1 0.24076 5.72858 21.8996 0.41 
192 64 1 30.3365 6.23043 20.5631 0.41 
193 65 2 29.1774 25.1179 20.6642 -0.82 
194 65 1 28.6107 24.2833 20.5103 0.41 
195 65 1 30.0657 25.1691 20.0925 0.41 
196 66 2 0.695494 12.9395 19.305 -0.82 
197 66 1 0.544666 13.8044 18.7647 0.41 
198 66 1 30.8102 12.4097 19.3799 0.41 
199 67 2 1.0612 27.4091 21.8309 -0.82 
200 67 1 1.28873 28.3425 22.1831 0.41 
201 67 1 1.47656 26.7887 22.5435 0.41 
202 68 2 17.1 16.3058 22.0906 -0.82 
203 68 1 16.6944 15.8269 21.3243 0.41 
204 68 1 16.9039 15.6539 22.9373 0.41 
205 69 2 3.15656 27.4852 29.2549 -0.82 
206 69 1 2.654 28.1138 29.8761 0.41 
207 69 1 2.62796 26.591 29.3741 0.41 
208 70 2 20.6607 12.8001 30.3575 -0.82 
209 70 1 20.8097 11.8996 29.8745 0.41 
210 70 1 21.1526 12.7271 0.28834 0.41 
211 71 2 11.157 5.54472 3.27044 -0.82 
212 71 1 11.0538 4.84118 4.02974 0.41 
213 71 1 10.2278 5.9979 3.35729 0.41 
214 72 2 4.7114 30.2691 13.5001 -0.82 
215 72 1 3.99607 0.054766 13.2455 0.41 
216 72 1 4.77468 29.9531 14.4637 0.41 
217 73 2 1.64827 25.6533 26.0929 -0.82 
218 73 1 0.650236 25.3901 25.9178 0.41 
219 73 1 1.87408 26.3746 25.3826 0.41 
220 74 2 14.1886 12.5319 21.7483 -0.82 
221 74 1 13.546 12.7762 20.9561 0.41 
222 74 1 14.5962 11.6427 21.5266 0.41 
223 75 2 22.4747 16.3889 0.705652 -0.82 
224 75 1 21.498 16.2203 0.402206 0.41 
225 75 1 22.4754 16.4459 1.66423 0.41 
226 76 2 17.8318 6.28767 10.6706 -0.82 
227 76 1 18.7098 6.71176 10.5515 0.41 
228 76 1 17.9243 5.39897 11.0687 0.41 
229 77 2 1.45066 28.4604 0.0575607 -0.82 
230 77 1 0.598218 28.8187 30.5351 0.41 
231 77 1 1.48854 29.0404 0.869494 0.41 
232 78 2 26.6813 9.51946 8.10925 -0.82 
233 78 1 27.4771 9.94027 8.64995 0.41 
234 78 1 26.8274 8.46662 8.0948 0.41 
235 79 2 17.7832 13.1353 15.8329 -0.82 
236 79 1 18.662 12.6611 16.1772 0.41 
237 79 1 17.2795 12.2945 15.4884 0.41 
238 80 2 17.874 13.938 7.10617 -0.82 
239 80 1 18.2736 13.0607 7.32633 0.41 
240 80 1 17.1239 13.8398 6.41166 0.41 
241 81 2 17.7984 23.7641 26.3176 -0.82 
242 81 1 18.2432 23.9918 27.1838 0.41 
243 81 1 17.7154 22.746 26.4069 0.41 
244 82 2 18.9665 5.94536 14.8803 -0.82 
245 82 1 18.8063 6.82554 15.389 0.41 
246 82 1 18.0359 5.52332 14.589 0.41 
247 83 2 6.62234 1.13247 2.62212 -0.82 
248 83 1 6.60726 1.5597 1.66953 0.41 
249 83 1 7.65636 0.947108 2.83352 0.41 
250 84 2 8.89417 8.94844 11.5103 -0.82 
251 84 1 9.13601 8.67551 10.5605 0.41 
252 84 1 7.95453 8.75338 11.824 0.41 
253 85 2 10.6997 5.63466 29.5838 -0.82 
254 85 1 11.0166 4.85508 28.9822 0.41 
255 85 1 9.86879 5.476 30.1605 0.41 
256 86 2 10.059 13.1855 18.0921 -0.82 
257 86 1 9.06328 13.3062 18.3225 0.41 
258 86 1 10.1748 12.2005 18.1295 0.41 
259 87 2 16.0564 13.5895 18.1084 -0.82 
260 87 1 16.7361 13.5559 17.3094 0.41 
261 87 1 15.5234 14.4886 17.9467 0.41 
262 88 2 8.92683 12.9559 21.8534 -0.82 
263 88 1 9.13462 11.9458 21.9012 0.41 
264 88 1 9.74315 13.5505 22.1399 0.41 
265 89 2 19.9846 30.5899 27.5745 -0.82 
266 89 1 20.8948 30.7025 27.0486 0.41 
267 89 1 19.7185 0.50316 28.0192 0.41 
268 90 2 12.2066 7.79121 19.9076 -0.82 
269 90 1 11.5 7.24972 20.374 0.41 
270 90 1 12.0411 8.76829 20.041 0.41 
271 91 2 2.17 8.87604 30.3335 -0.82 
272 91 1 2.53381 9.71655 29.809 0.41 
273 91 1 2.85685 8.15757 30.588 0.41 
274 92 2 18.1349 27.3863 20.706 -0.82 
275 92 1 17.9903 27.5166 19.6984 0.41 
276 92 1 18.5614 28.2646 21.0257 0.41 
277 93 2 5.76487 17.5114 5.67722 -0.82 
278 93 1 6.2915 18.4201 5.66492 0.41 
279 93 1 6.13118 16.9285 6.42039 0.41 
280 94 2 19.1908 10.065 14.3269 -0.82 
281 94 1 19.9391 10.6712 14.7088 0.41 
282 94 1 19.0259 10.2952 13.3414 0.41 
283 95 2 18.2571 1.05755 14.6559 -0.82 
284 95 1 18.5072 0.364265 13.8685 0.41 
285 95 1 19.0433 1.70574 14.7692 0.41 
286 96 2 26.8193 20.0941 19.8854 -0.82 
287 96 1 26.6988 19.6689 20.8118 0.41 
288 96 1 25.9516 20.1847 19.3272 0.41 
289 97 2 28.531 30.0788 27.1742 -0.82 
290 97 1 28.4873 0.091055 27.3792 0.41 
291 97 1 28.2726 29.9742 26.2145 0.41 
292 98 2 23.9426 1.71969 6.54433 -0.82 
293 98 1 23.079 1.5524 7.17567 0.41 
294 98 1 23.9988 2.73546 6.46421 0.41 
295 99 2 0.489062 12.6834 9.83144 -0.82 
296 99 1 0.490811 13.2075 10.7116 0.41 
297 99 1 1.01321 13.3309 9.25752 0.41 
298 100 2 25.3084 17.4751 17.8902 -0.82 
299 100 1 25.0823 16.9171 17.0203 0.41 
300 100 1 25.8138 18.3222 17.4562 0.41 
301 101 2 11.4181 10.4586 26.7574 -0.82 
302 101 1 11.7478 9.66852 26.1832 0.41 
303 101 1 11.5499 10.3865 27.7688 0.41 
304 102 2 26.5946 20.0642 25.6886 -0.82 
305 102 1 27.2994 20.2399 26.4009 0.41 
306 102 1 26.742 20.8144 24.9505 0.41 
307 103 2 16.7388 30.1291 23.6688 -0.82 
308 103 1 16.761 29.1403 23.6101 0.41 
309 103 1 17.4584 30.4012 24.331 0.41 
310 104 2 21.8905 20.4285 18.0726 -0.82 
311 104 1 22.4726 19.5866 18.3077 0.41 
312 104 1 21.6201 20.5147 17.0943 0.41 
313 105 2 30.2057 16.9368 20.9998 -0.82 
314 105 1 0.0975909 16.9357 20.5006 0.41 
315 105 1 29.7653 17.5815 20.3617 0.41 
316 106 2 1.11748 5.36278 10.3865 -0.82 
317 106 1 0.665041 4.38806 10.3842 0.41 
318 106 1 2.08731 5.13429 10.2859 0.41 
319 107 2 21.3383 29.0013 19.3057 -0.82 
320 107 1 21.9876 28.3908 19.8073 0.41 
321 107 1 21.8411 29.5625 18.5403 0.41 
322 108 2 0.45239 27.1348 28.271 -0.82 
323 108 1 1.13464 27.0345 27.5411 0.41 
324 108 1 30.6814 26.478 28.2851 0.41 
325 109 2 19.721 21.539 28.4958 -0.82 
326 109 1 20.1545 20.7184 28.9591 0.41 
327 109 1 20.5303 21.8029 27.898 0.41 
328 110 2 23.4902 7.89131 1.01704 -0.82 
329 110 1 23.5489 8.85798 0.712362 0.41 
330 110 1 22.6095 7.70517 1.58379 0.41 
331 111 2 25.1463 2.41621 11.1579 -0.82 
332 111 1 25.1643 1.4399 10.7994 0.41 
333 111 1 26.0753 2.77839 10.7924 0.41 
334 112 2 25.9375 17.2585 26.0577 -0.82 
335 112 1 26.4169 18.1722 26.0929 0.41 
336 112 1 25.4079 17.3604 25.1867 0.41 
337 113 2 14.8811 17.7768 7.36077 -0.82 
338 113 1 13.843 17.6221 7.25637 0.41 
339 113 1 14.9562 18.6747 7.82091 0.41 
340 114 2 12.3097 14.2066 4.30485 -0.82 
341 114 1 11.8412 13.9124 3.43132 0.41 
342 114 1 12.4083 15.2213 4.29709 0.41 
343 115 2 8.02351 9.71274 14.4702 -0.82 
344 115 1 7.4515 9.2204 13.7426 0.41 
345 115 1 9.01625 9.52514 14.1521 0.41 
346 116 2 2.32254 30.0855 7.43378 -0.82 
347 116 1 2.49636 30.5881 8.30715 0.41 
348 116 1 3.23491 29.7203 7.08202 0.41 
349 117 2 15.613 28.2577 14.2774 -0.82 
350 117 1 14.7985 28.8854 14.0658 0.41 
351 117 1 15.5808 28.18 15.3178 0.41 
352 118 2 29.5044 18.8887 7.99066 -0.82 
353 118 1 28.995 19.1649 8.82888 0.41 
354 118 1 29.2599 19.6717 7.36587 0.41 
355 119 2 12.9418 23.8231 8.40323 -0.82 
356 119 1 12.8517 24.5918 7.6821 0.41 
357 119 1 12.4707 23.0125 8.08931 0.41 
358 120 2 27.3434 9.28607 30.3393 -0.82 
359 120 1 27.3724 9.01313 0.326336 0.41 
360 120 1 27.631 10.2318 30.2765 0.41 
361 121 2 18.8474 17.2537 26.0734 -0.82 
362 121 1 18.7475 16.2666 25.763 0.41 
363 121 1 18.7833 17.8751 25.2302 0.41 
364 122 2 28.8351 13.4924 26.7252 -0.82 
365 122 1 28.6424 13.2609 25.74 0.41 
366 122 1 29.8362 13.5186 26.8945 0.41 
367 123 2 17.8102 18.354 16.2287 -0.82 
368 123 1 17.4973 19.299 16.5834 0.41 
369 123 1 18.1795 18.4081 15.2833 0.41 
370 124 2 29.431 0.780001 24.3768 -0.82 
371 124 1 29.2227 30.9514 23.7842 0.41 
372 124 1 30.3329 0.529382 24.6952 0.41 
373 125 2 27.0771 22.7212 1.13968 -0.82 
374 125 1 27.8535 23.2655 1.56774 0.41 
375 125 1 27.4465 22.1424 0.36456 0.41 
376 126 2 25.2501 3.93544 19.122 -0.82 
377 126 1 24.5491 3.39588 19.681 0.41 
378 126 1 24.9005 4.05362 18.162 0.41 
379 127 2 26.0146 19.3758 22.3406 -0.82 
380 127 1 26.2928 20.1695 22.9118 0.41 
381 127 1 25.5506 18.5596 22.8072 0.41 
382 128 2 1.06744 22.7615 27.4612 -0.82 
383 128 1 1.38472 22.0853 26.7283 0.41 
384 128 1 1.1231 23.7553 27.3062 0.41 
385 129 2 0.781116 19.4086 27.5287 -0.82 
386 129 1 0.596362 18.4173 27.7453 0.41 
387 129 1 0.396832 19.5964 26.5745 0.41 
388 130 2 19.4401 15.8478 1.72518 -0.82 
389 130 1 18.9742 16.7284 2.01621 0.41 
390 130 1 19.7872 15.8717 0.747393 0.41 
391 131 2 14.2416 14.1406 12.9246 -0.82 
392 131 1 13.6225 14.476 13.6235 0.41 
393 131 1 14.0543 13.1552 13.0858 0.41 
394 132 2 5.81427 23.9671 29.1288 -0.82 
395 132 1 5.32358 24.6502 28.4953 0.41 
396 132 1 6.75099 24.4083 29.2169 0.41 
397 133 2 17.951 21.6372 30.4946 -0.82 
398 133 1 18.6689 21.661 29.7023 0.41 
399 133 1 17.3346 22.4522 30.7384 0.41 
400 134 2 2.37077 21.2327 10.7684 -0.82 
401 134 1 3.04973 21.4093 11.5231 0.41 
402 134 1 1.45453 20.9828 11.2629 0.41 
403 135 2 9.07891 1.40543 17.2453 -0.82 
404 135 1 9.91564 1.85441 17.6695 0.41 
405 135 1 8.81823 2.05051 16.5276 0.41 
406 136 2 9.25439 23.556 11.0716 -0.82 
407 136 1 8.51105 24.1723 11.6067 0.41 
408 136 1 8.7923 22.7124 10.6888 0.41 
409 137 2 15.7703 21.5068 2.17905 -0.82 
410 137 1 16.1796 20.6781 1.75545 0.41 
411 137 1 16.5217 22.044 2.57043 0.41 
412 138 2 20.3358 19.9895 10.0391 -0.82 
413 138 1 19.5257 19.7413 9.47552 0.41 
414 138 1 20.141 20.846 10.6018 0.41 
415 139 2 22.5642 13.5131 27.3099 -0.82 
416 139 1 23.0139 14.0194 28.1291 0.41 
417 139 1 23.2505 13.6232 26.4876 0.41 
418 140 2 14.8398 1.45392 20.7049 -0.82 
419 140 1 14.1449 0.805383 21.1674 0.41 
420 140 1 15.7413 1.26953 21.0508 0.41 
421 141 2 1.35519 12.0411 13.7 -0.82 
422 141 1 0.913334 11.1582 14.0235 0.41 
423 141 1 0.842858 12.6665 13.1232 0.41 
424 142 2 15.4837 27.8464 16.8847 -0.82 
425 142 1 15.1584 26.8662 16.9051 0.41 
426 142 1 15.2806 28.413 17.6736 0.41 
427 143 2 19.649 8.96727 4.6262 -0.82 
428 143 1 19.3505 8.92267 3.63124 0.41 
429 143 1 20.0325 9.92707 4.90451 0.41 
430 144 2 23.6796 24.5156 14.8548 -0.82 
431 144 1 23.3582 24.8588 13.864 0.41 
432 144 1 23.1467 24.9124 15.6056 0.41 
433 145 2 3.15604 11.3515 16.0111 -0.82 
434 145 1 3.58008 10.6052 15.4798 0.41 
435 145 1 2.34967 11.675 15.46 0.41 
436 146 2 23.2891 20.5545 28.9143 -0.82 
437 146 1 24.3282 20.5324 28.724 0.41 
438 146 1 23.0207 21.0214 28.0595 0.41 
439 147 2 2.88211 2.67083 24.7633 -0.82 
440 147 1 2.11499 2.882 25.4485 0.41 
441 147 1 3.46619 3.46283 24.7985 0.41 
442 148 2 30.456 12.085 29.1898 -0.82 
443 148 1 30.7568 11.5984 28.3206 0.41 
444 148 1 30.6261 13.1016 29.0796 0.41 
445 149 2 4.62017 4.32758 3.84875 -0.82 
446 149 1 4.39454 5.23063 3.29409 0.41 
447 149 1 5.0213 4.81983 4.65938 0.41 
448 150 2 26.0235 7.72902 15.6847 -0.82 
449 150 1 26.1551 8.63398 15.1285 0.41 
450 150 1 25.0393 7.45564 15.5248 0.41 
451 151 2 18.6842 6.48073 18.1787 -0.82 
452 151 1 18.95 7.03529 19.0399 0.41 
453 151 1 19.2368 6.99264 17.5204 0.41 
454 152 2 7.16714 13.7445 27.7197 -0.82 
455 152 1 7.29062 14.679 28.0544 0.41 
456 152 1 7.50246 13.0876 28.4636 0.41 
457 153 2 18.0413 23.3471 9.5858 -0.82 
458 153 1 17.3644 23.1164 8.82618 0.41 
459 153 1 17.4628 23.8795 10.1941 0.41 
460 154 2 30.6009 19.9771 3.6933 -0.82 
461 154 1 30.5404 21.0024 3.83593 0.41 
462 154 1 0.527815 19.6854 4.0797 0.41 
463 155 2 23.2405 6.99862 14.8653 -0.82 
464 155 1 22.564 6.62986 14.2143 0.41 
465 155 1 23.1214 6.63275 15.8159 0.41 
466 156 2 22.7097 27.7058 12.54 -0.82 
467 156 1 22.6208 26.7165 12.2336 0.41 
468 156 1 22.2494 27.8898 13.4555 0.41 
469 157 2 4.41146 10.9187 13.266 -0.82 
470 157 1 5.14499 11.593 13.5073 0.41 
471 157 1 4.42119 10.1108 13.9392 0.41 
472 158 2 26.3997 25.4688 24.1759 -0.82 
473 158 1 25.9305 25.5154 23.2733 0.41 
474 158 1 25.8692 26.2117 24.6263 0.41 
475 159 2 7.05269 30.0214 26.2999 -0.82 
476 159 1 6.33521 30.2384 26.9451 0.41 
477 159 1 7.87912 30.5318 26.5434 0.41 
478 160 2 29.4456 19.9395 22.3449 -0.82 
479 160 1 29.4641 19.2516 21.5713 0.41 
480 160 1 29.8035 20.8352 22.0147 0.41 
481 161 2 8.5714 4.12795 14.4283 -0.82 
482 161 1 8.09441 3.27052 14.391 0.41 
483 161 1 7.94893 4.83269 13.9556 0.41 
484 162 2 2.00101 4.83569 4.35701 -0.82 
485 162 1 2.96269 4.48627 4.14566 0.41 
486 162 1 1.52487 4.58134 3.47173 0.41 
487 163 2 16.8275 24.8111 11.5918 -0.82 
488 163 1 17.071 25.8226 11.6751 0.41 
489 163 1 17.0148 24.3326 12.4461 0.41 
490 164 2 19.2666 13.3831 12.2603 -0.82 
491 164 1 19.0475 14.1503 12.9057 0.41 
492 164 1 18.4512 13.2928 11.5938 0.41 
493 165 2 15.8909 30.7837 9.65691 -0.82 
494 165 1 16.3026 30.5183 8.79302 0.41 
495 165 1 14.8754 30.4966 9.58538 0.41 
496 166 2 16.0794 15.9697 12.5396 -0.82 
497 166 1 15.8784 16.476 11.6699 0.41 
498 166 1 15.4486 15.1922 12.4885 0.41 
499 167 2 0.0529222 7.20119 15.9007 -0.82 
500 167 1 30.2161 6.67826 15.5722 0.41 
501 167 1 30.9577 7.40104 16.9036 0.41 
502 168 2 25.4386 28.3616 0.873661 -0.82 
503 168 1 25.6432 28.6804 1.83529 0.41 
504 168 1 25.9366 29.0411 0.240067 0.41 
505 169 2 6.47943 12.6276 10.2954 -0.82 
506 169 1 7.3595 12.9951 10.6996 0.41 
507 169 1 6.66162 12.5063 9.29786 0.41 
508 170 2 27.9864 21.2001 30.2908 -0.82 
509 170 1 27.847 20.302 30.7337 0.41 
510 170 1 28.9291 21.196 29.904 0.41 
511 171 2 2.31146 17.5685 16.2217 -0.82 
512 171 1 2.93069 16.763 16.0432 0.41 
513 171 1 2.89174 18.4298 16.099 0.41 
514 172 2 1.96718 29.9864 22.8181 -0.82 
515 172 1 1.76059 30.6898 22.0566 0.41 
516 172 1 2.00539 30.5335 23.7004 0.41 
517 173 2 27.2255 21.8841 17.108 -0.82 
518 173 1 28.2261 22.1996 16.9747 0.41 
519 173 1 26.5566 22.4437 16.5175 0.41 
520 174 2 13.6419 21.5402 0.384897 -0.82 
521 174 1 14.3584 21.4994 1.08264 0.41 
522 174 1 13.741 20.6616 30.8269 0.41 
523 175 2 7.89862 17.8869 25.8597 -0.82 
524 175 1 8.60861 18.4547 26.3636 0.41 
525 175 1 8.30631 16.9679 25.718 0.41 
526 176 2 14.6568 24.2016 22.4435 -0.82 
527 176 1 13.636 24.2998 22.5129 0.41 
528 176 1 15.0526 24.2966 23.3634 0.41 
529 177 2 20.9919 5.72842 28.944 -0.82 
530 177 1 20.7819 4.90345 28.4102 0.41 
531 177 1 21.8972 5.73857 29.5033 0.41 
532 178 2 26.9209 30.0467 20.9744 -0.82 
533 178 1 26.4713 30.7089 20.2615 0.41 
534 178 1 27.1195 29.1275 20.5303 0.41 
535 179 2 22.169 3.65699 3.01667 -0.82 
536 179 1 22.9348 3.41907 2.42034 0.41 
537 179 1 21.4702 3.87286 2.3374 0.41 
538 180 2 26.1812 19.5154 16.6154 -0.82 
539 180 1 25.7008 19.9547 15.7884 0.41 
540 180 1 26.9149 20.1174 17.0096 0.41 
541 181 2 19.0893 24.9679 28.8689 -0.82 
542 181 1 18.59 25.8463 28.9289 0.41 
543 181 1 20.0941 24.9651 28.7175 0.41 
544 182 2 4.54128 6.64604 2.31601 -0.82 
545 182 1 4.57323 6.75418 1.31181 0.41 
546 182 1 3.82172 7.25688 2.72898 0.41 
547 183 2 4.48896 24.7875 4.67784 -0.82 
548 183 1 4.48801 25.0816 3.66611 0.41 
549 183 1 5.40791 24.5033 4.97179 0.41 
550 184 2 16.3562 22.9237 7.62842 -0.82 
551 184 1 15.9365 23.7276 7.15647 0.41 
552 184 1 16.6546 22.2304 6.91198 0.41 
553 185 2 19.4162 27.6147 17.7742 -0.82 
554 185 1 20.1313 28.1116 18.3342 0.41 
555 185 1 18.94 28.3173 17.2406 0.41 
556 186 2 5.16777 7.02958 10.1507 -0.82 
557 186 1 4.25442 7.03164 10.6764 0.41 
558 186 1 5.48571 8.00845 10.097 0.41 
559 187 2 25.0546 3.30141 27.7791 -0.82 
560 187 1 25.3279 3.4623 28.761 0.41 
561 187 1 25.9767 3.50127 27.4042 0.41 
562 188 2 25.5306 12.6667 18.905 -0.82 
563 188 1 26.3652 13.0839 18.4309 0.41 
564 188 1 24.9229 12.0713 18.3099 0.41 
565 189 2 8.33001 19.011 29.7638 -0.82 
566 189 1 8.45843 20.0542 29.6535 0.41 
567 189 1 8.66262 18.5459 28.9242 0.41 
568 190 2 13.6672 17.9133 25.9274 -0.82 
569 190 1 13.6578 17.6101 24.8973 0.41 
570 190 1 14.2432 18.762 25.9951 0.41 
571 191 2 26.6528 9.67357 11.8544 -0.82 
572 191 1 26.273 10.3482 11.1584 0.41 
573 191 1 26.1323 8.7715 11.8633 0.41 
574 192 2 14.0874 5.96184 19.0125 -0.82 
575 192 1 13.3532 6.58518 19.3189 0.41 
576 192 1 14.686 6.35779 18.3282 0.41 
577 193 2 8.31712 21.1071 10.324 -0.82 
578 193 1 7.37552 20.7133 10.4992 0.41 
579 193 1 8.90478 20.9168 11.1907 0.41 
580 194 2 23.3634 19.1551 25.9194 -0.82 
581 194 1 24.3278 19.3535 25.6736 0.41 
582 194 1 22.7015 19.7603 25.3165 0.41 
583 195 2 21.9787 11.4917 20.9834 -0.82 
584 195 1 22.4664 12.3518 20.8831 0.41 
585 195 1 21.7594 11.3113 21.998 0.41 
586 196 2 8.54745 10.4229 2.58396 -0.82 
587 196 1 8.07091 11.0663 1.94171 0.41 
588 196 1 8.3904 10.6862 3.5828 0.41 
589 197 2 8.36982 3.25174 2.8014 -0.82 
590 197 1 8.18497 4.28774 2.73886 0.41 
591 197 1 7.93904 2.96551 3.68219 0.41 
592 198 2 5.46053 26.3079 14.8613 -0.82 
593 198 1 6.18347 26.8035 14.3149 0.41 
594 198 1 4.52852 26.6951 14.6097 0.41 
595 199 2 17.0862 13.8318 24.0621 -0.82 
596 199 1 16.376 13.4372 24.7623 0.41 
597 199 1 17.4563 13.0938 23.4284 0.41 
598 200 2 7.38118 16.5173 9.67439 -0.82 
599 200 1 8.27311 16.6263 9.22646 0.41 
600 200 1 6.85034 15.755 9.19708 0.41 
601 201 2 24.7695 24.4963 1.10619 -0.82 
602 201 1 25.1802 25.1778 0.42015 0.41 
603 201 1 25.2296 23.6296 0.779911 0.41 
604 202 2 2.33835 22.3465 2.06275 -0.82 
605 202 1 1.51076 22.1255 1.45833 0.41 
606 202 1 2.91031 23.0216 1.53488 0.41 
607 203 2 11.4228 8.66056 1.80192 -0.82 
608 203 1 12.1549 8.03761 2.15952 0.41 
609 203 1 11.7106 9.63706 2.11519 0.41 
610 204 2 21.6108 26.3943 3.61333 -0.82 
611 204 1 21.8351 27.4177 3.76224 0.41 
612 204 1 22.5507 25.9545 3.42945 0.41 
613 205 2 21.248 11.2198 26.5809 -0.82 
614 205 1 20.2151 11.3604 26.4366 0.41 
615 205 1 21.7716 12.0759 26.7464 0.41 
616 206 2 27.3213 16.9253 4.91366 -0.82 
617 206 1 27.4996 17.87 4.54955 0.41 
618 206 1 27.5083 16.2302 4.19759 0.41 
619 207 2 29.3757 10.2543 8.55904 -0.82 
620 207 1 29.876 10.3971 7.70776 0.41 
621 207 1 29.9988 9.91443 9.2154 0.41 
622 208 2 8.97502 19.0293 16.5237 -0.82 
623 208 1 8.24493 19.1679 15.8158 0.41 
624 208 1 8.87966 19.8024 17.1945 0.41 
625 209 2 6.28875 13.1446 22.9846 -0.82 
626 209 1 6.9367 13.7229 23.4803 0.41 
627 209 1 6.59271 12.917 22.0201 0.41 
628 210 2 7.05549 19.2477 14.192 -0.82 
629 210 1 6.61287 18.7985 13.4484 0.41 
630 210 1 6.74537 20.2239 14.191 0.41 
631 211 2 4.54059 15.2796 30.8582 -0.82 
632 211 1 3.84399 15.6632 0.59306 0.41 
633 211 1 5.23037 15.9498 30.7381 0.41 
634 212 2 20.3679 14.1752 4.72279 -0.82 
635 212 1 20.8149 14.2309 5.63029 0.41 
636 212 1 20.3053 15.1414 4.44836 0.41 
637 213 2 11.1633 3.57971 5.19069 -0.82 
638 213 1 10.5384 3.48822 6.01926 0.41 
639 213 1 12.0125 3.07581 5.43143 0.41 
640 214 2 3.68882 22.1932 15.4796 -0.82 
641 214 1 4.33078 22.8647 15.9061 0.41 
642 214 1 2.75264 22.5472 15.694 0.41 
643 215 2 26.7227 25.7509 14.7508 -0.82 
644 215 1 26.5352 24.9023 15.2919 0.41 
645 215 1 27.1197 26.424 15.3731 0.41 
646 216 2 30.7394 12.2601 6.41666 -0.82 
647 216 1 30.2781 12.8976 7.06566 0.41 
648 216 1 0.726005 12.2711 6.73556 0.41 
649 217 2 5.93744 3.24381 11.8526 -0.82 
650 217 1 6.53784 2.6426 12.4345 0.41 
651 217 1 5.48917 2.75905 11.0131 0.41 
652 218 2 0.0636943 8.10418 18.4133 -0.82 
653 218 1 30.3685 8.15065 19.1746 0.41 
654 218 1 0.970907 8.47256 18.7415 0.41 
655 219 2 8.96569 15.3216 25.6811 -0.82 
656 219 1 8.68201 14.3445 25.5511 0.41 
657 219 1 9.5143 15.4961 26.5347 0.41 
658 220 2 28.1435 12.9467 1.26484 -0.82 
659 220 1 28.9828 12.4123 1.51693 0.41 
660 220 1 27.8907 12.6136 0.296891 0.41 
661 221 2 23.2055 12.9901 17.1294 -0.82 
662 221 1 23.7219 12.1079 17.0962 0.41 
663 221 1 23.9215 13.6495 16.7794 0.41 
664 222 2 17.5675 29.6006 16.4602 -0.82 
665 222 1 17.0534 30.4037 16.0982 0.41 
666 222 1 16.8223 28.9409 16.675 0.41 
667 223 2 11.3683 21.9046 6.88093 -0.82 
668 223 1 11.0555 20.93 7.01989 0.41 
669 223 1 10.5507 22.5487 6.92812 0.41 
670 224 2 14.8801 2.5106 6.43894 -0.82 
671 224 1 14.0621 1.96132 6.46819 0.41 
672 224 1 15.2218 2.61096 5.47308 0.41 
673 225 2 27.3773 5.53331 0.591009 -0.82 
674 225 1 27.7974 5.89768 1.47633 0.41 
675 225 1 27.3759 6.30452 30.925 0.41 
676 226 2 13.9228 24.3852 10.7861 -0.82 
677 226 1 13.5757 24.1152 9.81436 0.41 
678 226 1 14.9704 24.4383 10.8459 0.41 
679 227 2 30.9072 10.9216 22.2109 -0.82 
680 227 1 0.563008 10.4082 22.7615 0.41 
681 227 1 0.258685 11.8845 22.0161 0.41 
682 228 2 11.7198 27.7986 30.1752 -0.82 
683 228 1 11.62 27.71 29.1472 0.41 
684 228 1 12.385 27.048 30.456 0.41 
685 229 2 5.43415 16.3668 21.7853 -0.82 
686 229 1 5.54363 16.6036 22.7451 0.41 
687 229 1 6.20393 16.8488 21.2848 0.41 
688 230 2 15.4008 16.6078 9.84961 -0.82 
689 230 1 15.476 16.7063 8.81269 0.41 
690 230 1 15.7451 17.503 10.1985 0.41 
691 231 2 29.0247 10.5347 5.42752 -0.82 
692 231 1 28.2842 10.9696 4.84956 0.41 
693 231 1 29.5867 11.1973 6.01022 0.41 
694 232 2 6.48998 4.10283 24.7068 -0.82 
695 232 1 6.82568 3.13617 24.534 0.41 
696 232 1 5.91189 4.21584 23.8796 0.41 
697 233 2 8.24828 23.396 14.9899 -0.82 
698 233 1 8.07405 24.2271 15.6024 0.41 
699 233 1 8.06638 23.7329 14.0562 0.41 
700 234 2 25.6224 4.9399 21.6478 -0.82 
701 234 1 25.3556 4.37545 20.8527 0.41 
702 234 1 25.3175 5.93889 21.4902 0.41 
703 235 2 1.65235 7.41627 26.7018 -0.82 
704 235 1 2.48775 8.01548 26.807 0.41 
705 235 1 1.20196 7.13595 27.6108 0.41 
706 236 2 15.9512 0.685399 16.0237 -0.82 
707 236 1 16.8516 1.08213 15.5672 0.41 
708 236 1 15.6656 1.15415 16.9283 0.41 
709 237 2 23.0251 10.9406 5.7891 -0.82 
710 237 1 24.027 10.8352 5.66555 0.41 
711 237 1 22.5761 11.0669 4.88166 0.41 
712 238 2 20.7515 30.3608 11.5282 -0.82 
713 238 1 19.966 30.0379 12.0989 0.41 
714 238 1 20.685 29.7729 10.6602 0.41 
715 239 2 6.96291 12.0924 0.843912 -0.82 
716 239 1 6.12885 11.8223 0.287054 0.41 
717 239 1 6.76756 12.6882 1.68847 0.41 
718 240 2 12.925 18.4792 11.4951 -0.82 
719 240 1 12.4381 17.6236 11.2999 0.41 
720 240 1 13.1422 18.3192 12.4553 0.41 
721 241 2 10.3032 1.65716 21.6068 -0.82 
722 241 1 10.2727 1.06037 22.4707 0.41 
723 241 1 10.3073 2.62487 21.9133 0.41 
724 242 2 16.0252 19.6996 13.8374 -0.82 
725 242 1 15.8626 18.6901 13.9777 0.41 
726 242 1 15.1346 20.2138 14.1306 0.41 
727 243 2 26.0551 30.4397 25.2621 -0.82 
728 243 1 25.4521 30.6079 26.0686 0.41 
729 243 1 26.6114 0.283993 25.1314 0.41 
730 244 2 24.168 30.9468 14.9453 -0.82 
731 244 1 24.7619 30.2363 14.5691 0.41 
732 244 1 23.2925 0.0319092 14.3502 0.41 
733 245 2 0.0366259 9.72475 14.6323 -0.82 
734 245 1 30.3255 9.60013 13.9138 0.41 
735 245 1 0.244291 8.84322 15.1329 0.41 
736 246 2 13.104 14.3823 10.469 -0.82 
737 246 1 13.4104 14.5087 11.4441 0.41 
738 246 1 13.7144 15.0008 9.96812 0.41 
739 247 2 21.3444 10.5737 9.75196 -0.82 
740 247 1 21.3415 11.5049 9.36119 0.41 
741 247 1 22.3836 10.3933 9.49172 0.41 
742 248 2 30.928 15.3313 18.1941 -0.82 
743 248 1 0.0295953 16.2705 18.4505 0.41 
744 248 1 30.4857 15.3117 17.2781 0.41 
745 249 2 12.499 12.6868 19.7599 -0.82 
746 249 1 11.9681 11.8529 19.8743 0.41 
747 249 1 12.1198 13.2352 19.0087 0.41 
748 250 2 16.4557 0.883899 11.9923 -0.82 
749 250 1 16.0965 0.591285 11.0994 0.41 
750 250 1 15.8912 0.442186 12.6675 0.41 
751 251 2 4.54321 24.2474 12.2421 -0.82 
752 251 1 4.76041 25.255 12.1001 0.41 