ITEM: TIMESTEP
350400
ITEM: NUMBER OF ATOMS
3000
ITEM: BOX BOUNDS pp pp pp
0.0000000000000000e+00 3.1000000000000000e+01
0.0000000000000000e+00 3.1000000000000000e+01
0.0000000000000000e+00 3.1000000000000000e+01
ITEM: ATOMS id mol type x y z q 
1 1 2 16.994 29.3899 7.74611 -0.82 
2 1 1 17.7329 28.7108 7.6226 0.41 
3 1 1 17.3097 30.2699 7.3023 0.41 
4 2 2 24.9368 6.23332 11.7679 -0.82 
5 2 1 24.3822 6.43334 12.6342 0.41 
6 2 1 24.4518 6.60325 10.9068 0.41 
7 3 2 4.01756 11.1148 3.37769 -0.82 
8 3 1 3.69181 10.2407 2.90776 0.41 
9 3 1 3.6415 11.9089 2.85685 0.41 
10 4 2 11.9156 0.445782 20.9089 -0.82 
11 4 1 11.0346 0.178827 21.3338 0.41 
12 4 1 12.4374 30.8914 21.5742 0.41 
13 5 2 21.2969 30.8635 6.07684 -0.82 
14 5 1 21.997 30.1755 6.20234 0.41 
15 5 1 21.3502 0.566078 6.83758 0.41 
16 6 2 14.3737 28.5495 30.2752 -0.82 
17 6 1 14.8876 28.7198 0.121908 0.41 
18 6 1 14.1207 27.5374 30.079 0.41 
19 7 2 11.4674 12.4696 29.7448 -0.82 
20 7 1 10.5063 12.4085 30.037 0.41 
21 7 1 11.6528 13.4622 29.9138 0.41 
22 8 2 26.2612 24.5112 26.6953 -0.82 
23 8 1 26.2866 24.9391 25.736 0.41 
24 8 1 27.2513 24.2637 27.0104 0.41 
25 9 2 5.17883 9.52408 18.7517 -0.82 
26 9 1 4.27049 9.08689 18.904 0.41 
27 9 1 5.3394 10.3612 19.3379 0.41 
28 10 2 29.7404 9.63262 26.2391 -0.82 
29 10 1 29.7262 9.16979 27.1542 0.41 
30 10 1 30.1282 8.92923 25.5794 0.41 
31 11 2 3.23101 13.6945 28.6589 -0.82 
32 11 1 3.47917 14.1875 29.5479 0.41 
33 11 1 4.06015 13.8661 28.0581 0.41 
34 12 2 15.8463 6.81598 17.2461 -0.82 
35 12 1 16.7886 6.80971 17.6358 0.41 
36 12 1 15.7845 6.40058 16.3005 0.41 
37 13 2 12.6645 27.5154 12.5602 -0.82 
38 13 1 13.6057 27.8743 12.4088 0.41 
39 13 1 12.3665 26.98 11.7223 0.41 
40 14 2 13.4223 16.9791 1.91626 -0.82 
41 14 1 13.2741 17.7506 1.32523 0.41 
42 14 1 12.6906 16.8849 2.60388 0.41 
43 15 2 27.4539 19.1094 12.7695 -0.82 
44 15 1 26.5687 19.7092 12.8975 0.41 
45 15 1 27.7107 18.4947 13.5131 0.41 
46 16 2 10.0817 19.3745 25.586 -0.82 
47 16 1 10.6653 18.9318 26.3444 0.41 
48 16 1 9.37945 19.9084 26.0962 0.41 
49 17 2 19.8084 22.3927 18.2061 -0.82 
50 17 1 20.1566 22.124 17.3061 0.41 
51 17 1 19.4123 23.3769 18.1799 0.41 
52 18 2 29.4108 7.09793 13.1034 -0.82 
53 18 1 29.0925 6.71012 14.0654 0.41 
54 18 1 30.3819 6.75002 12.9549 0.41 
55 19 2 8.29728 20.0949 17.9527 -0.82 
56 19 1 8.67531 20.7581 18.6412 0.41 
57 19 1 7.34935 19.9232 18.2768 0.41 
58 20 2 24.2028 21.3395 19.6662 -0.82 
59 20 1 23.8786 21.3914 20.6874 0.41 
60 20 1 23.4215 21.0102 19.0254 0.41 
61 21 2 10.4679 22.4687 19.1666 -0.82 
62 21 1 10.6345 21.6372 19.7309 0.41 
63 21 1 11.0605 23.1827 19.6422 0.41 
64 22 2 23.9346 21.0744 8.17616 -0.82 
65 22 1 23.0874 20.3911 8.10916 0.41 
66 22 1 24.7112 20.6636 8.59211 0.41 
67 23 2 4.6356 14.461 9.08137 -0.82 
68 23 1 4.82017 13.8371 9.89531 0.41 
69 23 1 3.61345 14.6166 8.95016 0.41 
70 24 2 6.74474 2.82476 22.2649 -0.82 
71 24 1 6.18488 2.23863 21.6519 0.41 
72 24 1 7.20575 2.20453 22.9015 0.41 
73 25 2 28.6149 8.7418 28.4759 -0.82 
74 25 1 27.806 8.68068 27.8614 0.41 
75 25 1 28.2018 8.99637 29.3918 0.41 
76 26 2 26.14 6.44434 8.0638 -0.82 
77 26 1 25.8237 6.0921 7.17202 0.41 
78 26 1 25.8762 5.88085 8.85182 0.41 
79 27 2 10.424 17.3326 18.2831 -0.82 
80 27 1 11.2723 17.8934 18.0859 0.41 
81 27 1 9.80784 17.5664 17.562 0.41 
82 28 2 10.9598 5.91682 20.7264 -0.82 
83 28 1 10.3478 5.09238 20.6867 0.41 
84 28 1 11.2585 6.35093 21.5895 0.41 
85 29 2 29.3333 27.4847 14.8693 -0.82 
86 29 1 29.1852 28.3958 15.4064 0.41 
87 29 1 29.882 26.892 15.4888 0.41 
88 30 2 18.4244 24.8053 21.9907 -0.82 
89 30 1 19.0601 25.4977 21.5875 0.41 
90 30 1 17.6044 24.8459 21.4044 0.41 
91 31 2 31.1954 27.2622 17.1196 -0.82 
92 31 1 30.5958 27.9956 17.4457 0.41 
93 31 1 1.16572 27.5616 17.0261 0.41 
94 32 2 14.6131 4.77237 21.8514 -0.82 
95 32 1 14.2428 4.81599 20.8478 0.41 
96 32 1 14.3959 3.81103 22.1472 0.41 
97 33 2 12.9909 20.7872 22.6304 -0.82 
98 33 1 12.1693 20.1547 22.6035 0.41 
99 33 1 13.1471 21.3624 21.7777 0.41 
100 34 2 4.56087 14.1696 24.2077 -0.82 
101 34 1 4.99873 13.5777 23.4787 0.41 
102 34 1 4.76086 15.1141 23.8433 0.41 
103 35 2 25.3353 26.8985 9.37281 -0.82 
104 35 1 24.9012 27.7395 9.73429 0.41 
105 35 1 25.7415 26.3882 10.1659 0.41 
106 36 2 8.0494 4.85227 0.103619 -0.82 
107 36 1 7.91547 5.33222 1.01069 0.41 
108 36 1 7.85022 5.52421 30.382 0.41 
109 37 2 11.0178 29.5298 23.9629 -0.82 
110 37 1 11.165 30.554 24.1966 0.41 
111 37 1 11.929 29.0796 23.7785 0.41 
112 38 2 13.6178 6.59846 2.822 -0.82 
113 38 1 12.6882 6.22418 2.55243 0.41 
114 38 1 13.9289 6.23912 3.74301 0.41 
115 39 2 3.29574 17.0937 2.42039 -0.82 
116 39 1 3.43891 18.018 2.1873 0.41 
117 39 1 2.24718 16.9091 2.3904 0.41 
118 40 2 8.53352 0.408378 29.7946 -0.82 
119 40 1 9.50109 0.0958689 29.7261 0.41 
120 40 1 7.95549 30.5757 30.0046 0.41 
121 41 2 7.05508 12.5201 13.8584 -0.82 
122 41 1 7.58799 12.9285 13.1263 0.41 
123 41 1 7.46372 11.6089 14.1151 0.41 
124 42 2 26.5922 20.9971 3.20406 -0.82 
125 42 1 26.0858 21.5527 3.9337 0.41 
126 42 1 26.9036 21.6061 2.45724 0.41 
127 43 2 28.582 25.6749 28.5039 -0.82 
128 43 1 28.1999 25.4839 29.4306 0.41 
129 43 1 28.9085 24.7827 28.1573 0.41 
130 44 2 8.15327 3.85599 6.1584 -0.82 
131 44 1 8.97035 4.42509 6.51395 0.41 
132 44 1 7.67071 4.64739 5.74622 0.41 
133 45 2 22.6412 13.4232 22.9293 -0.82 
134 45 1 23.1187 13.5927 22.0733 0.41 
135 45 1 21.627 13.5434 22.7212 0.41 
136 46 2 14.1958 20.6349 18.4425 -0.82 
137 46 1 14.0086 21.295 19.2279 0.41 
138 46 1 15.1592 20.3139 18.3879 0.41 
139 47 2 5.88903 4.16618 27.4795 -0.82 
140 47 1 6.31732 4.80102 28.1912 0.41 
141 47 1 5.45222 4.78931 26.7758 0.41 
142 48 2 26.6615 8.78603 26.5222 -0.82 
143 48 1 26.5338 9.79637 26.2657 0.41 
144 48 1 26.7766 8.16758 25.705 0.41 
145 49 2 20.0909 2.52042 25.351 -0.82 
146 49 1 19.957 3.33723 24.7252 0.41 
147 49 1 21.0926 2.49831 25.3988 0.41 
148 50 2 24.8201 28.6132 13.9878 -0.82 
149 50 1 24.0411 28.2126 13.3938 0.41 
150 50 1 25.416 27.8335 14.3152 0.41 
151 51 2 21.3748 8.17446 10.8323 -0.82 
152 51 1 21.3312 9.17844 11.1069 0.41 
153 51 1 21.2056 7.69185 11.7067 0.41 
154 52 2 12.9604 24.159 26.7181 -0.82 
155 52 1 13.6085 23.876 27.5203 0.41 
156 52 1 13.2908 23.5307 25.9586 0.41 
157 53 2 23.5347 21.194 22.3835 -0.82 
158 53 1 24.3222 20.6667 22.6217 0.41 
159 53 1 22.7559 20.5309 22.3862 0.41 
160 54 2 27.461 17.3536 15.2253 -0.82 
161 54 1 27.0547 16.9356 14.3905 0.41 
162 54 1 27.1091 18.32 15.3989 0.41 
163 55 2 12.5905 1.35213 7.23966 -0.82 
164 55 1 12.2407 0.691831 6.55803 0.41 
165 55 1 12.469 0.885876 8.17351 0.41 
166 56 2 16.6838 24.3112 29.7876 -0.82 
167 56 1 17.4304 24.6823 29.1991 0.41 
168 56 1 17.0066 24.5264 30.7312 0.41 
169 57 2 10.2348 16.1766 29.0832 -0.82 
170 57 1 9.50966 15.7715 29.6098 0.41 
171 57 1 11.0565 15.6273 29.4631 0.41 
172 58 2 28.2702 13.0458 19.5584 -0.82 
173 58 1 28.4274 12.1021 19.1068 0.41 
174 58 1 27.6375 13.5278 18.8306 0.41 
175 59 2 7.15767 11.1968 5.17134 -0.82 
176 59 1 6.19073 11.1245 5.69942 0.41 
177 59 1 7.91743 11.2461 5.79136 0.41 
178 60 2 0.878579 5.4149 6.17694 -0.82 
179 60 1 0.364513 6.27901 6.3907 0.41 
180 60 1 1.47405 5.658 5.36915 0.41 
181 61 2 26.8959 11.1045 2.10018 -0.82 
182 61 1 26.6425 10.1192 2.42061 0.41 
183 61 1 26.8008 11.2204 1.07483 0.41 
184 62 2 10.4068 9.64113 13.6739 -0.82 
185 62 1 9.85209 9.28014 12.8327 0.41 
186 62 1 10.4885 10.6529 13.5028 0.41 
187 63 2 16.2084 12.5972 10.3318 -0.82 
188 63 1 15.2415 13.0054 10.3912 0.41 
189 63 1 16.095 11.6578 9.98017 0.41 
190 64 2 31.0686 6.72021 21.7174 -0.82 
191 64 1 0.843851 6.56458 22.3372 0.41 
192 64 1 31.1069 5.96396 21.0123 0.41 
193 65 2 29.4841 25.4413 20.2607 -0.82 
194 65 1 29.9182 25.0577 21.1222 0.41 
195 65 1 29.8599 24.9836 19.431 0.41 
196 66 2 -0.149544 13.0071 19.325 -0.82 
197 66 1 -0.260483 13.2938 18.3146 0.41 
198 66 1 29.8711 13.1756 19.5433 0.41 
199 67 2 1.79302 28.6388 22.3406 -0.82 
200 67 1 1.46112 29.5969 22.1005 0.41 
201 67 1 2.71953 28.7493 22.8778 0.41 
202 68 2 17.5961 14.4756 21.1756 -0.82 
203 68 1 16.6784 14.9103 20.917 0.41 
204 68 1 17.474 13.7838 21.8799 0.41 
205 69 2 3.05085 26.3117 30.0835 -0.82 
206 69 1 2.77194 27.128 30.6777 0.41 
207 69 1 2.36067 25.5968 29.8389 0.41 
208 70 2 20.8312 12.7738 1.01608 -0.82 
209 70 1 21.3423 12.2335 0.372729 0.41 
210 70 1 21.4363 12.864 1.7774 0.41 
211 71 2 10.9821 5.84486 2.63548 -0.82 
212 71 1 11.0535 5.14182 3.39756 0.41 
213 71 1 10.2358 6.55561 2.75563 0.41 
214 72 2 4.53061 0.0692191 12.5833 -0.82 
215 72 1 3.86862 0.827551 12.3846 0.41 
216 72 1 4.20944 -0.41037 13.4589 0.41 
217 73 2 0.682381 25.9529 26.7323 -0.82 
218 73 1 31.1723 25.6152 25.9337 0.41 
219 73 1 1.45944 26.6321 26.4826 0.41 
220 74 2 13.3063 12.4782 21.6063 -0.82 
221 74 1 12.8606 12.1568 20.7292 0.41 
222 74 1 14.2799 12.0521 21.6088 0.41 
223 75 2 22.5879 17.9238 1.05686 -0.82 
224 75 1 22.308 16.9119 1.11311 0.41 
225 75 1 22.7768 18.1328 2.02065 0.41 
226 76 2 16.9344 6.00986 10.5078 -0.82 
227 76 1 17.4435 5.86653 9.6478 0.41 
228 76 1 16.9269 5.18788 11.0863 0.41 
229 77 2 3.03941 29.0879 1.0535 -0.82 
230 77 1 2.7549 29.9201 0.543109 0.41 
231 77 1 2.60803 29.2619 1.96512 0.41 
232 78 2 26.4725 8.98773 9.24674 -0.82 
233 78 1 27.4343 9.29128 8.97476 0.41 
234 78 1 26.4286 7.97152 8.96341 0.41 
235 79 2 17.298 12.9512 16.1702 -0.82 
236 79 1 17.9764 12.2754 16.5623 0.41 
237 79 1 16.6475 12.4131 15.6246 0.41 
238 80 2 17.4161 14.3002 7.08592 -0.82 
239 80 1 17.8057 13.4579 6.63447 0.41 
240 80 1 16.4466 14.3266 6.7922 0.41 
241 81 2 17.5908 23.4552 25.9999 -0.82 
242 81 1 17.8124 23.7357 26.913 0.41 
243 81 1 17.6163 22.3913 25.9966 0.41 
244 82 2 19.5382 5.8835 15.1011 -0.82 
245 82 1 19.6334 6.81857 15.5133 0.41 
246 82 1 18.5609 5.59046 14.9375 0.41 
247 83 2 7.58725 1.29747 2.0593 -0.82 
248 83 1 7.27814 1.42071 1.02088 0.41 
249 83 1 7.71305 2.17781 2.56367 0.41 
250 84 2 8.75084 9.3546 11.5706 -0.82 
251 84 1 8.81065 8.9824 10.5789 0.41 
252 84 1 7.8668 8.99143 11.9442 0.41 
253 85 2 10.4651 5.92883 30.4485 -0.82 
254 85 1 10.7097 5.93041 29.4793 0.41 
255 85 1 9.62468 5.41789 -0.196379 0.41 
256 86 2 9.20968 13.0194 19.0718 -0.82 
257 86 1 8.36918 13.4027 18.6374 0.41 
258 86 1 9.10562 12.0297 18.8836 0.41 
259 87 2 16.2925 14.118 18.2891 -0.82 
260 87 1 16.6576 13.4931 17.5642 0.41 
261 87 1 16.3049 15.0884 17.8613 0.41 
262 88 2 8.43927 14.2276 21.4318 -0.82 
263 88 1 9.03819 13.9407 20.6959 0.41 
264 88 1 8.86988 14.9406 22.0262 0.41 
265 89 2 20.026 30.1428 27.1919 -0.82 
266 89 1 20.9304 30.5152 26.8113 0.41 
267 89 1 19.8557 30.6929 28.0525 0.41 
268 90 2 11.8759 7.73761 18.8999 -0.82 
269 90 1 11.5035 6.90887 19.4199 0.41 
270 90 1 11.5392 8.52676 19.4577 0.41 
271 91 2 2.20855 8.51179 30.0244 -0.82 
272 91 1 2.27224 9.49882 29.6419 0.41 
273 91 1 3.19441 8.13436 30.2324 0.41 
274 92 2 19.4406 26.979 20.6566 -0.82 
275 92 1 19.2897 27.1736 19.6586 0.41 
276 92 1 19.817 27.8351 21.0357 0.41 
277 93 2 5.50864 17.7211 5.27119 -0.82 
278 93 1 5.91002 17.7661 4.33083 0.41 
279 93 1 6.20116 17.9198 5.98076 0.41 
280 94 2 19.6707 9.42755 13.4876 -0.82 
281 94 1 20.1964 9.85992 14.2813 0.41 
282 94 1 19.556 10.192 12.8041 0.41 
283 95 2 17.8728 2.23187 14.6077 -0.82 
284 95 1 17.7465 2.05927 13.6179 0.41 
285 95 1 18.8047 2.43499 14.9844 0.41 
286 96 2 26.3538 19.4171 20.1272 -0.82 
287 96 1 26.0162 19.278 21.1368 0.41 
288 96 1 25.6055 19.9473 19.6331 0.41 
289 97 2 28.458 30.2955 27.5428 -0.82 
290 97 1 28.1198 0.197403 27.8353 0.41 
291 97 1 28.6803 30.4282 26.5616 0.41 
292 98 2 24.4063 1.29922 6.99723 -0.82 
293 98 1 23.4823 1.67123 7.24678 0.41 
294 98 1 25.1631 1.99283 6.90926 0.41 
295 99 2 1.28824 12.3998 10.2357 -0.82 
296 99 1 1.01624 12.9214 11.1134 0.41 
297 99 1 1.01621 13.1436 9.53498 0.41 
298 100 2 24.7751 17.9079 17.0948 -0.82 
299 100 1 24.2287 17.4521 16.3228 0.41 
300 100 1 25.2616 18.753 16.8558 0.41 
301 101 2 11.0557 11.6303 27.0762 -0.82 
302 101 1 10.438 10.8312 26.8366 0.41 
303 101 1 11.0584 11.776 28.1084 0.41 
304 102 2 26.3134 19.9753 25.1952 -0.82 
305 102 1 26.7859 19.4033 25.9293 0.41 
306 102 1 25.8648 20.8378 25.5873 0.41 
307 103 2 16.8387 30.4458 23.5941 -0.82 
308 103 1 17.3227 29.5263 23.4978 0.41 
309 103 1 17.1867 30.7801 24.4934 0.41 
310 104 2 22.2862 20.4826 18.1479 -0.82 
311 104 1 22.6695 19.5573 18.4011 0.41 
312 104 1 21.674 20.3745 17.2569 0.41 
313 105 2 29.5076 16.3896 20.5081 -0.82 
314 105 1 29.8929 15.9881 19.6884 0.41 
315 105 1 29.1128 17.3105 20.2806 0.41 
316 106 2 1.21409 5.63184 9.97215 -0.82 
317 106 1 1.01829 5.19349 9.04536 0.41 
318 106 1 1.91229 6.3561 9.78107 0.41 
319 107 2 22.1399 30.4808 19.0727 -0.82 
320 107 1 22.4206 29.667 19.6478 0.41 
321 107 1 22.5938 30.337 18.1794 0.41 
322 108 2 30.5466 27.2818 29.3626 -0.82 
323 108 1 0.207136 27.3245 28.616 0.41 
324 108 1 29.7293 26.7647 29.0056 0.41 
325 109 2 20.0821 20.4813 28.4383 -0.82 
326 109 1 20.4376 19.6185 28.8607 0.41 
327 109 1 20.783 20.9349 27.9039 0.41 
328 110 2 23.0362 8.23251 0.786149 -0.82 
329 110 1 23.1442 9.27249 0.855662 0.41 
330 110 1 22.1593 7.88782 1.18283 0.41 
331 111 2 25.5582 2.67833 10.8973 -0.82 
332 111 1 25.9669 1.69098 10.7784 0.41 
333 111 1 26.0764 3.39863 10.4604 0.41 
334 112 2 25.6282 16.5508 25.6976 -0.82 
335 112 1 26.3586 17.2716 25.7214 0.41 
336 112 1 25.2069 16.5362 24.7135 0.41 
337 113 2 14.4988 17.2854 8.73197 -0.82 
338 113 1 13.9913 17.3889 7.89497 0.41 
339 113 1 14.7812 18.292 8.82838 0.41 
340 114 2 10.9931 15.4747 5.88949 -0.82 
341 114 1 11.041 16.1565 5.09984 0.41 
342 114 1 10.4789 15.9881 6.60787 0.41 
343 115 2 7.77431 9.98432 14.7956 -0.82 
344 115 1 7.31561 9.26678 15.3352 0.41 
345 115 1 8.7395 9.83103 14.4542 0.41 
346 116 2 1.81285 30.3761 7.59238 -0.82 
347 116 1 2.11402 30.59 8.61419 0.41 
348 116 1 2.35723 29.6347 7.1317 0.41 
349 117 2 15.2838 27.6411 14.0452 -0.82 
350 117 1 14.9755 28.6245 14.0784 0.41 
351 117 1 15.7876 27.4979 14.9623 0.41 
352 118 2 29.8363 18.5171 8.33473 -0.82 
353 118 1 29.4511 18.9759 9.2124 0.41 
354 118 1 30.2257 19.2285 7.66654 0.41 
355 119 2 13.3071 23.3091 8.46132 -0.82 
356 119 1 13.2593 24.0261 7.73305 0.41 
357 119 1 12.7036 22.5572 8.13859 0.41 
358 120 2 27.6703 8.94225 31.0857 -0.82 
359 120 1 27.3513 8.65023 1.02029 0.41 
360 120 1 27.3541 9.93853 31.0385 0.41 
361 121 2 17.4833 17.8465 25.882 -0.82 
362 121 1 17.7571 16.8074 25.7371 0.41 
363 121 1 18.1322 18.577 25.4219 0.41 
364 122 2 29.516 13.7566 26.7435 -0.82 
365 122 1 29.3825 13.1757 25.9732 0.41 
366 122 1 30.447 14.104 26.5707 0.41 
367 123 2 17.5026 18.6895 16.3087 -0.82 
368 123 1 16.6248 18.9185 15.8529 0.41 
369 123 1 18.3202 18.6106 15.6354 0.41 
370 124 2 29.1798 30.9357 24.9167 -0.82 
371 124 1 28.9909 30.5147 23.9636 0.41 
372 124 1 30.2042 0.351628 24.9548 0.41 
373 125 2 27.7168 22.1484 0.922324 -0.82 
374 125 1 28.4313 22.7818 1.31416 0.41 
375 125 1 27.9185 22.1213 30.9065 0.41 
376 126 2 24.2805 4.52925 19.7998 -0.82 
377 126 1 24.0116 3.54859 20.1368 0.41 
378 126 1 23.4296 5.07926 19.5585 0.41 
379 127 2 25.494 19.3284 22.6284 -0.82 
380 127 1 25.933 19.5384 23.5662 0.41 
381 127 1 25.1476 18.3733 22.8728 0.41 
382 128 2 1.32285 23.3007 27.2941 -0.82 
383 128 1 1.62153 22.5711 26.6793 0.41 
384 128 1 1.53825 24.2796 27.131 0.41 
385 129 2 0.981314 19.003 26.9596 -0.82 
386 129 1 0.646197 18.2188 27.5167 0.41 
387 129 1 0.830426 18.7018 26.0063 0.41 
388 130 2 20.0367 15.5698 3.69275 -0.82 
389 130 1 19.7266 16.5396 3.75204 0.41 
390 130 1 20.9375 15.4607 3.19253 0.41 
391 131 2 14.2811 13.7815 13.3977 -0.82 
392 131 1 13.3534 14.0345 13.8042 0.41 
393 131 1 14.6235 12.8936 13.7793 0.41 
394 132 2 5.05954 23.5851 28.9074 -0.82 
395 132 1 4.78842 24.3738 28.3568 0.41 
396 132 1 6.09286 23.8105 29.1361 0.41 
397 133 2 18.4915 21.9197 30.1973 -0.82 
398 133 1 19.0624 21.6959 29.3656 0.41 
399 133 1 17.6702 22.4435 29.9245 0.41 
400 134 2 2.73507 21.0909 10.9699 -0.82 
401 134 1 3.2267 20.7773 11.8435 0.41 
402 134 1 1.75307 20.9395 11.3416 0.41 
403 135 2 7.96583 0.648426 18.401 -0.82 
404 135 1 8.82354 1.16409 18.6223 0.41 
405 135 1 7.28543 1.25871 17.926 0.41 
406 136 2 8.99323 23.6281 10.4075 -0.82 
407 136 1 8.36387 24.1259 11.004 0.41 
408 136 1 8.82061 22.6066 10.3439 0.41 
409 137 2 15.8301 21.0086 1.97423 -0.82 
410 137 1 16.3238 20.1018 2.02458 0.41 
411 137 1 16.5487 21.7355 2.07506 0.41 
412 138 2 20.3319 19.3479 10.2002 -0.82 
413 138 1 19.5169 19.2483 9.48801 0.41 
414 138 1 20.0703 20.2307 10.6134 0.41 
415 139 2 22.4793 13.915 26.8241 -0.82 
416 139 1 22.7358 14.103 27.8519 0.41 
417 139 1 23.3151 13.6181 26.2687 0.41 
418 140 2 14.2296 2.0091 20.8085 -0.82 
419 140 1 13.4024 1.47612 21.1109 0.41 
420 140 1 15.0367 1.84229 21.3596 0.41 
421 141 2 1.61453 11.8432 15.0785 -0.82 
422 141 1 0.98851 11.1706 14.513 0.41 
423 141 1 1.05916 12.6255 15.3699 0.41 
424 142 2 16.4147 27.568 16.472 -0.82 
425 142 1 16.5298 26.5687 16.7601 0.41 
426 142 1 15.8396 28.0117 17.3145 0.41 
427 143 2 19.5895 9.05202 4.506 -0.82 
428 143 1 19.3151 8.40384 3.73113 0.41 
429 143 1 19.2802 10.0228 4.29231 0.41 
430 144 2 23.8588 24.4878 14.5238 -0.82 
431 144 1 23.6707 24.7819 13.5464 0.41 
432 144 1 23.2349 24.9668 15.2261 0.41 
433 145 2 3.84199 11.2733 16.278 -0.82 
434 145 1 3.94769 10.3333 16.5791 0.41 
435 145 1 2.90997 11.2173 15.8028 0.41 
436 146 2 24.3693 20.2938 28.43 -0.82 
437 146 1 25.0445 21.0148 28.4665 0.41 
438 146 1 23.5117 20.8433 28.1663 0.41 
439 147 2 3.05085 3.52978 24.9058 -0.82 
440 147 1 2.1625 3.70847 25.3485 0.41 
441 147 1 3.54015 4.35055 25.1167 0.41 
442 148 2 29.0702 11.8562 28.4523 -0.82 
443 148 1 29.161 11.0663 27.7857 0.41 
444 148 1 29.1578 12.716 27.9328 0.41 
445 149 2 4.89825 4.07572 3.73304 -0.82 
446 149 1 4.89484 4.37703 2.75207 0.41 
447 149 1 5.56391 4.49459 4.38882 0.41 
448 150 2 26.0689 7.84527 15.3375 -0.82 
449 150 1 26.1899 8.76926 14.973 0.41 
450 150 1 25.2487 7.32925 14.8502 0.41 
451 151 2 18.6964 6.58467 18.4569 -0.82 
452 151 1 18.6788 7.31635 19.1753 0.41 
453 151 1 18.9732 7.05903 17.6024 0.41 
454 152 2 7.76843 13.6047 27.5779 -0.82 
455 152 1 8.45587 13.5156 26.8432 0.41 
456 152 1 8.1648 13.2138 28.433 0.41 
457 153 2 17.7055 22.8303 9.70983 -0.82 
458 153 1 17.1657 22.5263 8.88976 0.41 
459 153 1 17.1435 23.5168 10.2798 0.41 
460 154 2 30.2732 19.7491 3.96451 -0.82 
461 154 1 30.3125 20.7208 4.26978 0.41 
462 154 1 0.315869 19.4947 3.96011 0.41 
463 155 2 23.3825 6.90999 14.0658 -0.82 
464 155 1 22.4301 6.58198 13.9781 0.41 
465 155 1 23.6874 6.49103 14.9604 0.41 
466 156 2 23.0451 27.4184 12.5325 -0.82 
467 156 1 23.1211 26.4775 12.0367 0.41 
468 156 1 22.475 27.2665 13.3946 0.41 
469 157 2 5.34503 10.2326 12.6569 -0.82 
470 157 1 5.87653 10.9767 13.0165 0.41 
471 157 1 4.93869 9.7798 13.4576 0.41 
472 158 2 26.0221 25.2836 24.1953 -0.82 
473 158 1 25.6118 25.1692 23.2627 0.41 
474 158 1 26.0007 26.3075 24.4688 0.41 
475 159 2 6.58228 0.197056 27.0871 -0.82 
476 159 1 6.25909 30.8884 27.9979 0.41 
477 159 1 7.43422 0.71029 27.1896 0.41 
478 160 2 28.6253 20.135 23.6976 -0.82 
479 160 1 27.6327 20.2496 24.0383 0.41 
480 160 1 28.9797 21.1001 23.7077 0.41 
481 161 2 8.39217 4.79631 13.9568 -0.82 
482 161 1 8.61463 3.84043 13.5949 0.41 
483 161 1 7.96285 5.28728 13.1763 0.41 
484 162 2 2.42057 5.27154 3.99418 -0.82 
485 162 1 3.28514 4.69017 4.02164 0.41 
486 162 1 1.91075 4.86098 3.15218 0.41 
487 163 2 16.4405 24.4443 11.3802 -0.82 
488 163 1 16.5761 25.4378 11.5663 0.41 
489 163 1 16.8364 23.9525 12.1995 0.41 
490 164 2 20.1645 14.1809 12.5344 -0.82 
491 164 1 19.42 14.2066 13.2051 0.41 
492 164 1 19.6635 14.0288 11.6689 0.41 
493 165 2 15.8527 29.9864 9.9696 -0.82 
494 165 1 16.3721 29.7311 9.10743 0.41 
495 165 1 14.9351 29.509 9.92477 0.41 
496 166 2 15.778 15.7723 13.88 -0.82 
497 166 1 15.9385 16.2911 13.0182 0.41 
498 166 1 15.282 14.8867 13.6606 0.41 
499 167 2 30.3055 9.01433 16.1327 -0.82 
500 167 1 29.6664 8.24243 16.0833 0.41 
501 167 1 30.3323 9.51884 17.0866 0.41 
502 168 2 24.9905 28.1193 0.772507 -0.82 
503 168 1 25.0134 27.8501 1.75639 0.41 
504 168 1 25.7693 28.7909 0.639001 0.41 
505 169 2 7.90912 11.123 9.18209 -0.82 
506 169 1 8.58246 10.3591 8.97577 0.41 
507 169 1 8.36559 12.0002 8.89124 0.41 
508 170 2 27.9076 21.0486 29.1398 -0.82 
509 170 1 27.7868 20.1292 29.6902 0.41 
510 170 1 28.8925 21.0356 28.75 0.41 
511 171 2 2.44893 17.6621 15.9595 -0.82 
512 171 1 3.03306 16.7769 15.8626 0.41 
513 171 1 3.08981 18.4127 16.1164 0.41 
514 172 2 1.84334 0.294978 22.7955 -0.82 
515 172 1 1.98479 1.26003 22.4386 0.41 
516 172 1 1.40652 0.189323 23.7273 0.41 
517 173 2 27.986 21.7885 15.6357 -0.82 
518 173 1 28.8796 22.2534 15.9552 0.41 
519 173 1 27.4048 22.5165 15.2838 0.41 
520 174 2 13.5486 21.4844 30.9305 -0.82 
521 174 1 14.0185 21.219 0.828454 0.41 
522 174 1 13.0849 20.6723 30.4973 0.41 
523 175 2 7.70773 17.6614 25.4616 -0.82 
524 175 1 8.46521 18.2997 25.2395 0.41 
525 175 1 8.23201 16.8321 25.8572 0.41 
526 176 2 15.0033 25.4471 22.0644 -0.82 
527 176 1 14.0352 25.6129 22.3283 0.41 
528 176 1 15.5033 25.0612 22.865 0.41 
529 177 2 20.3915 5.7213 29.6222 -0.82 
530 177 1 20.1696 5.03061 28.9288 0.41 
531 177 1 21.3913 5.577 29.844 0.41 
532 178 2 26.619 29.7732 20.3016 -0.82 
533 178 1 26.6372 30.369 19.4567 0.41 
534 178 1 26.8854 28.8181 20.0883 0.41 
535 179 2 22.477 3.44645 3.66097 -0.82 
536 179 1 23.4494 3.1053 3.6438 0.41 
537 179 1 22.2552 3.89083 2.74907 0.41 
538 180 2 26.1333 19.7518 15.4483 -0.82 
539 180 1 25.6155 20.2125 14.6664 0.41 
540 180 1 26.865 20.4026 15.7576 0.41 
541 181 2 18.7925 25.1457 28.3258 -0.82 
542 181 1 18.6989 26.1026 28.0745 0.41 
543 181 1 19.721 24.9475 28.7021 0.41 
544 182 2 5.11262 6.98499 2.04689 -0.82 
545 182 1 4.55521 7.73095 1.70087 0.41 
546 182 1 4.80092 6.86363 2.99782 0.41 
547 183 2 4.47728 25.5349 4.46281 -0.82 
548 183 1 4.28624 25.7491 3.43803 0.41 
549 183 1 5.48678 25.1431 4.47877 0.41 
550 184 2 16.0519 22.1558 7.35361 -0.82 
551 184 1 15.6197 22.9995 6.99435 0.41 
552 184 1 16.6266 21.613 6.62257 0.41 
553 185 2 19.9584 27.6214 17.8533 -0.82 
554 185 1 20.9189 27.9916 18.0795 0.41 
555 185 1 19.412 28.3865 17.4094 0.41 
556 186 2 3.02372 7.34716 9.52906 -0.82 
557 186 1 3.12494 7.50909 10.5384 0.41 
558 186 1 3.02798 8.22049 9.00137 0.41 
559 187 2 25.6028 3.14568 28.1354 -0.82 
560 187 1 25.3596 3.37731 29.168 0.41 
561 187 1 26.1463 3.96768 27.9557 0.41 
562 188 2 24.9971 12.1971 19.1024 -0.82 
563 188 1 25.7335 12.8018 18.6654 0.41 
564 188 1 24.8966 11.382 18.4473 0.41 
565 189 2 8.9032 19.3746 30.1603 -0.82 
566 189 1 9.04832 20.1622 29.5093 0.41 
567 189 1 9.62044 18.6251 30.0761 0.41 
568 190 2 13.4608 17.595 25.7679 -0.82 
569 190 1 13.3296 17.3695 24.7889 0.41 
570 190 1 14.1882 18.324 25.8107 0.41 
571 191 2 25.0596 11.1852 12.5651 -0.82 
572 191 1 25.2426 10.8088 11.6223 0.41 
573 191 1 24.1135 10.8915 12.7189 0.41 
574 192 2 14.202 5.32745 19.0422 -0.82 
575 192 1 13.5023 6.04378 19.1312 0.41 
576 192 1 14.8675 5.5314 18.2545 0.41 
577 193 2 8.84081 20.9781 10.3197 -0.82 
578 193 1 7.94291 20.8989 10.8226 0.41 
579 193 1 9.66391 20.9469 11.0239 0.41 
580 194 2 23.3737 19.3422 25.4957 -0.82 
581 194 1 24.3555 19.4586 25.3248 0.41 
582 194 1 22.753 19.8038 24.8138 0.41 
583 195 2 21.8891 10.8888 20.6321 -0.82 
584 195 1 22.3331 11.8196 20.6601 0.41 
585 195 1 22.0966 10.6473 21.6181 0.41 
586 196 2 8.71776 10.2372 3.09499 -0.82 
587 196 1 8.26079 10.5812 2.25817 0.41 
588 196 1 8.20549 10.3266 3.91756 0.41 
589 197 2 8.59915 3.31764 3.52608 -0.82 
590 197 1 8.25727 4.20879 3.12053 0.41 
591 197 1 8.60876 3.47922 4.50908 0.41 
592 198 2 5.69721 26.8678 15.2885 -0.82 
593 198 1 6.19169 27.2821 15.9877 0.41 
594 198 1 5.95334 27.2403 14.3497 0.41 
595 199 2 18.1151 13.0496 23.9247 -0.82 
596 199 1 17.6448 12.5461 24.7176 0.41 
597 199 1 18.1982 12.3485 23.1899 0.41 
598 200 2 6.51188 16.149 9.93931 -0.82 
599 200 1 7.277 16.5244 9.32679 0.41 
600 200 1 5.89351 15.4457 9.50451 0.41 
601 201 2 25.1336 23.5501 1.16422 -0.82 
602 201 1 25.2593 23.9507 0.255251 0.41 
603 201 1 25.746 22.751 1.30259 0.41 
604 202 2 2.96298 21.993 2.4411 -0.82 
605 202 1 2.35987 21.335 1.96969 0.41 
606 202 1 3.10184 22.7124 1.73879 0.41 
607 203 2 12.2789 8.98089 2.28268 -0.82 
608 203 1 13.0378 8.3939 2.66857 0.41 
609 203 1 11.877 9.45443 3.11253 0.41 
610 204 2 21.0951 26.3764 2.38928 -0.82 
611 204 1 21.4253 27.266 2.84787 0.41 
612 204 1 21.9701 25.8614 2.33243 0.41 
613 205 2 22.9115 10.6571 25.996 -0.82 
614 205 1 22.1386 11.2574 26.3806 0.41 
615 205 1 23.6688 11.3748 25.8704 0.41 
616 206 2 27.1012 16.2434 5.03896 -0.82 
617 206 1 27.3509 17.2136 4.90818 0.41 
618 206 1 27.4682 15.6924 4.20159 0.41 
619 207 2 28.6173 10.0435 8.00327 -0.82 
620 207 1 28.8696 10.1283 7.03354 0.41 
621 207 1 29.4492 10.5206 8.36275 0.41 
622 208 2 8.6782 17.9982 16.4071 -0.82 
623 208 1 8.74039 18.0222 15.3526 0.41 
624 208 1 8.56265 18.9887 16.7821 0.41 
625 209 2 6.13324 12.8973 22.2389 -0.82 
626 209 1 7.10748 13.2813 22.1848 0.41 
627 209 1 5.74724 12.6394 21.2902 0.41 
628 210 2 8.1618 18.4206 13.7401 -0.82 
629 210 1 7.32684 18.0464 13.257 0.41 
630 210 1 7.89531 19.4354 13.8413 0.41 
631 211 2 4.00928 15.1742 -0.0787955 -0.82 
632 211 1 3.29057 15.7139 0.348687 0.41 
633 211 1 4.70911 15.867 30.5217 0.41 
634 212 2 20.3269 13.5529 5.28867 -0.82 
635 212 1 20.9132 13.9418 6.07158 0.41 
636 212 1 20.1001 14.3314 4.60439 0.41 
637 213 2 12.1153 4.05885 4.67576 -0.82 
638 213 1 11.6746 4.71243 5.38191 0.41 
639 213 1 13.0684 3.79239 4.88179 0.41 
640 214 2 4.90928 22.1564 15.8325 -0.82 
641 214 1 5.40627 23.0317 16.1305 0.41 
642 214 1 3.96031 22.4484 15.9404 0.41 
643 215 2 26.9306 26.6 13.9625 -0.82 
644 215 1 26.755 25.7378 14.4959 0.41 
645 215 1 27.7928 27.0782 14.3699 0.41 
646 216 2 30.0658 12.5105 6.27437 -0.82 
647 216 1 29.6717 13.2436 6.87111 0.41 
648 216 1 0.0571852 12.5998 6.09383 0.41 
649 217 2 4.66291 4.21175 11.3896 -0.82 
650 217 1 5.35357 3.87172 12.0686 0.41 
651 217 1 4.42016 3.43791 10.7479 0.41 
652 218 2 30.765 9.30439 18.8174 -0.82 
653 218 1 30.5846 9.34693 19.8457 0.41 
654 218 1 0.728746 9.13781 18.6895 0.41 
655 219 2 9.52046 15.937 26.3724 -0.82 
656 219 1 9.74915 14.9701 26.0295 0.41 
657 219 1 9.82468 15.8625 27.3651 0.41 
658 220 2 29.0949 13.0729 1.50145 -0.82 
659 220 1 29.4936 12.1985 1.06445 0.41 
660 220 1 28.2905 12.6509 1.99297 0.41 
661 221 2 22.5324 12.3298 16.6501 -0.82 
662 221 1 22.7183 11.4976 17.2635 0.41 
663 221 1 23.4402 12.8274 16.5275 0.41 
664 222 2 18.3263 29.4209 16.4292 -0.82 
665 222 1 17.7641 30.3161 16.3792 0.41 
666 222 1 17.7496 28.5224 16.3124 0.41 
667 223 2 11.5019 21.3269 7.85749 -0.82 
668 223 1 11.464 20.5644 8.55832 0.41 
669 223 1 10.5376 21.5107 7.48015 0.41 
670 224 2 15.1378 2.28815 6.63951 -0.82 
671 224 1 14.2346 1.78978 6.87005 0.41 
672 224 1 15.1603 2.29915 5.5844 0.41 
673 225 2 27.6044 4.62824 1.46811 -0.82 
674 225 1 26.8945 4.54815 2.22678 0.41 
675 225 1 28.3994 5.24129 1.73648 0.41 
676 226 2 13.6184 24.112 10.8904 -0.82 
677 226 1 13.551 23.8614 9.85796 0.41 
678 226 1 14.6437 24.124 11.1771 0.41 
679 227 2 0.635448 11.0585 23.0873 -0.82 
680 227 1 1.00606 10.7443 24.0227 0.41 
681 227 1 1.1236 11.8069 22.4927 0.41 
682 228 2 11.4066 27.5792 30.005 -0.82 
683 228 1 11.2089 28.236 29.2822 0.41 
684 228 1 12.2514 27.0997 29.7602 0.41 
685 229 2 4.80096 16.8171 21.5882 -0.82 
686 229 1 4.57794 16.7183 22.5941 0.41 
687 229 1 5.60664 17.4567 21.586 0.41 
688 230 2 15.8655 16.6652 10.882 -0.82 
689 230 1 15.19 17.0359 10.1699 0.41 
690 230 1 16.504 17.4925 11.0495 0.41 
691 231 2 29.2602 10.2288 5.11732 -0.82 
692 231 1 28.2673 10.6312 4.99293 0.41 
693 231 1 29.7433 11.0009 5.61902 0.41 
694 232 2 7.27488 4.83859 24.1763 -0.82 
695 232 1 7.14152 4.18499 23.3933 0.41 
696 232 1 7.67682 4.31569 24.9806 0.41 
697 233 2 8.27738 23.2964 14.9623 -0.82 
698 233 1 8.48815 24.1675 15.5065 0.41 
699 233 1 8.07087 23.5523 13.9551 0.41 
700 234 2 25.9953 4.85807 22.0671 -0.82 
701 234 1 25.2503 4.94461 21.3167 0.41 
702 234 1 25.9979 5.84211 22.3083 0.41 
703 235 2 1.88806 7.25957 25.8926 -0.82 
704 235 1 2.73073 7.8694 25.7527 0.41 
705 235 1 1.9675 6.79852 26.8284 0.41 
706 236 2 16.3531 0.585813 16.4065 -0.82 
707 236 1 17.0848 1.14093 15.9286 0.41 
708 236 1 15.7882 1.22013 16.9434 0.41 
709 237 2 23.8304 11.6159 5.50045 -0.82 
710 237 1 24.5019 11.0575 5.98197 0.41 
711 237 1 23.3949 11.0134 4.80101 0.41 
712 238 2 20.7644 30.7269 11.2295 -0.82 
713 238 1 20.1186 30.0528 11.7204 0.41 
714 238 1 20.8517 30.3688 10.2574 0.41 
715 239 2 7.24513 12.0798 1.12131 -0.82 
716 239 1 6.3123 11.6131 1.06571 0.41 
717 239 1 7.28612 12.8178 1.80268 0.41 
718 240 2 12.9829 17.7247 12.7135 -0.82 
719 240 1 12.1041 17.9825 12.2213 0.41 
720 240 1 12.6414 17.2285 13.5148 0.41 
721 241 2 9.4715 30.8675 22.0147 -0.82 
722 241 1 9.76684 30.1007 22.5959 0.41 
723 241 1 8.97611 0.513702 22.6544 0.41 
724 242 2 15.3578 19.5036 14.5918 -0.82 
725 242 1 14.8419 18.6414 14.3983 0.41 
726 242 1 14.7731 20.2389 15.0008 0.41 
727 243 2 25.8488 30.6237 24.8486 -0.82 
728 243 1 25.6036 0.0757612 25.7365 0.41 
729 243 1 26.2187 0.491439 24.4324 0.41 
730 244 2 24.5739 0.26859 14.3738 -0.82 
731 244 1 24.7161 30.2334 14.1679 0.41 
732 244 1 23.6447 0.482728 14.1064 0.41 
733 245 2 0.170359 9.86061 13.7561 -0.82 
734 245 1 30.6192 9.63548 12.9594 0.41 
735 245 1 30.8281 9.41444 14.6747 0.41 
736 246 2 14.1105 14.5338 10.8716 -0.82 
737 246 1 13.9522 14.14 11.7767 0.41 
738 246 1 14.9525 15.0955 11.1277 0.41 
739 247 2 21.9864 11.2362 10.3122 -0.82 
740 247 1 21.917 12.1538 9.79529 0.41 
741 247 1 22.6079 10.7118 9.73353 0.41 
742 248 2 0.811827 14.4657 17.1092 -0.82 
743 248 1 0.913964 15.4638 17.4982 0.41 
744 248 1 0.117528 14.4408 16.3982 0.41 
745 249 2 12.073 11.8481 19.054 -0.82 
746 249 1 11.5724 11.0864 19.5661 0.41 
747 249 1 11.2579 12.4648 18.8891 0.41 
748 250 2 15.9295 1.13872 11.4852 -0.82 
749 250 1 15.9089 0.329625 10.839 0.41 
750 250 1 15.199 0.960301 12.1702 0.41 
751 251 2 4.62608 24.6969 11.9312 -0.82 
752 251 1 4.42276 25.6269 11.5855 0.41 