ITEM: TIMESTEP
350300
ITEM: NUMBER OF ATOMS
3000
ITEM: BOX BOUNDS pp pp pp
0.0000000000000000e+00 3.1000000000000000e+01
0.0000000000000000e+00 3.1000000000000000e+01
0.0000000000000000e+00 3.1000000000000000e+01
ITEM: ATOMS id mol type x y z q 
1 1 2 17.0539 29.1666 7.64677 -0.82 
2 1 1 17.8951 28.7523 7.29623 0.41 
3 1 1 17.3307 30.1765 7.71948 0.41 
4 2 2 24.9917 6.64816 11.7689 -0.82 
5 2 1 24.3737 6.75287 12.6032 0.41 
6 2 1 24.3681 6.35153 10.999 0.41 
7 3 2 3.85522 10.8153 3.52757 -0.82 
8 3 1 3.27249 9.99337 3.73678 0.41 
9 3 1 3.33882 11.2997 2.82133 0.41 
10 4 2 11.8803 0.552816 20.8125 -0.82 
11 4 1 10.9977 0.277057 21.1785 0.41 
12 4 1 12.708 31.1215 21.213 0.41 
13 5 2 20.9327 30.5181 6.71744 -0.82 
14 5 1 21.6252 29.7616 6.67599 0.41 
15 5 1 21.1451 0.175099 7.43601 0.41 
16 6 2 14.6789 28.5851 30.1441 -0.82 
17 6 1 15.0137 28.8069 31.0752 0.41 
18 6 1 14.5485 27.5328 30.164 0.41 
19 7 2 11.1224 12.3156 29.8894 -0.82 
20 7 1 10.1747 12.2771 30.2131 0.41 
21 7 1 11.6147 13.215 29.8523 0.41 
22 8 2 25.8163 24.6353 27.0937 -0.82 
23 8 1 25.9781 25.6891 26.9653 0.41 
24 8 1 26.5462 24.164 26.5445 0.41 
25 9 2 5.20597 9.66159 18.7366 -0.82 
26 9 1 4.35863 9.29059 19.1525 0.41 
27 9 1 5.44665 10.5739 19.2097 0.41 
28 10 2 30.1337 9.74756 25.9744 -0.82 
29 10 1 29.5959 9.23818 26.658 0.41 
30 10 1 30.2448 8.99864 25.241 0.41 
31 11 2 3.51463 13.741 28.6326 -0.82 
32 11 1 3.78732 14.1864 29.5165 0.41 
33 11 1 4.22421 14.0236 27.9094 0.41 
34 12 2 16.0604 7.0666 17.6295 -0.82 
35 12 1 17.0431 6.84335 17.7584 0.41 
36 12 1 15.8056 7.28457 16.618 0.41 
37 13 2 12.6953 27.7727 12.6324 -0.82 
38 13 1 13.663 28.0282 12.8914 0.41 
39 13 1 12.7359 27.4642 11.6915 0.41 
40 14 2 13.7017 17.1553 2.03551 -0.82 
41 14 1 13.5066 17.6793 1.23993 0.41 
42 14 1 12.8695 17.0433 2.56109 0.41 
43 15 2 28.1079 19.2889 12.9606 -0.82 
44 15 1 28.2541 19.9753 13.7061 0.41 
45 15 1 28.3811 18.3278 13.2855 0.41 
46 16 2 9.66874 19.3048 25.7475 -0.82 
47 16 1 9.92904 18.9694 26.6821 0.41 
48 16 1 9.08251 20.1759 25.8257 0.41 
49 17 2 20.0549 22.6448 18.1232 -0.82 
50 17 1 20.2831 22.2889 17.2229 0.41 
51 17 1 19.6729 23.6569 18.0504 0.41 
52 18 2 29.307 6.75194 12.9706 -0.82 
53 18 1 28.9724 6.46263 13.9555 0.41 
54 18 1 30.3353 6.58213 12.8456 0.41 
55 19 2 8.50509 19.8464 18.1117 -0.82 
56 19 1 9.15344 20.5227 18.4682 0.41 
57 19 1 7.60516 20.1144 18.5094 0.41 
58 20 2 24.0751 21.5985 19.2057 -0.82 
59 20 1 23.9791 21.462 20.2336 0.41 
60 20 1 23.2897 21.0662 18.7479 0.41 
61 21 2 10.3555 22.1506 18.9813 -0.82 
62 21 1 10.5311 21.55 19.7925 0.41 
63 21 1 10.9257 23.0292 19.0269 0.41 
64 22 2 23.823 21.065 8.79317 -0.82 
65 22 1 23.0404 20.5485 8.26495 0.41 
66 22 1 24.6517 20.6596 8.54928 0.41 
67 23 2 4.00966 14.3274 9.23431 -0.82 
68 23 1 4.41119 13.834 10.0672 0.41 
69 23 1 2.97581 14.122 9.26578 0.41 
70 24 2 7.02125 3.13235 21.4357 -0.82 
71 24 1 6.60987 2.66238 20.6041 0.41 
72 24 1 7.22208 2.44073 22.1422 0.41 
73 25 2 28.5217 8.5485 27.8516 -0.82 
74 25 1 27.5914 8.56057 27.4271 0.41 
75 25 1 28.4446 8.62671 28.8845 0.41 
76 26 2 26.209 6.42986 8.81499 -0.82 
77 26 1 25.2507 6.54407 8.48485 0.41 
78 26 1 26.3958 6.31404 9.8342 0.41 
79 27 2 10.6565 16.9421 18.3061 -0.82 
80 27 1 11.5603 17.46 18.2564 0.41 
81 27 1 10.0927 17.4385 17.6061 0.41 
82 28 2 11.4285 5.75663 20.8483 -0.82 
83 28 1 10.4745 5.42351 20.5926 0.41 
84 28 1 11.3642 5.89492 21.8415 0.41 
85 29 2 28.8421 28.076 15.1922 -0.82 
86 29 1 28.6086 28.8927 15.7905 0.41 
87 29 1 29.429 27.4171 15.7176 0.41 
88 30 2 18.4271 24.5148 21.8957 -0.82 
89 30 1 19.063 25.2414 21.7513 0.41 
90 30 1 17.6493 24.6345 21.2624 0.41 
91 31 2 30.9612 27.2155 17.1286 -0.82 
92 31 1 30.4938 27.9461 17.6295 0.41 
93 31 1 0.877759 27.5181 16.9674 0.41 
94 32 2 14.0441 4.80376 21.7945 -0.82 
95 32 1 13.7619 5.35574 20.8758 0.41 
96 32 1 14.0216 3.8078 21.5583 0.41 
97 33 2 13.5023 21.1962 22.4695 -0.82 
98 33 1 12.6589 20.6046 22.2988 0.41 
99 33 1 13.696 21.6874 21.5802 0.41 
100 34 2 4.47794 14.2004 24.2231 -0.82 
101 34 1 4.90741 13.5871 23.5213 0.41 
102 34 1 4.95902 15.1296 24.4875 0.41 
103 35 2 25.0896 27.1767 9.17753 -0.82 
104 35 1 24.9752 27.9876 9.77651 0.41 
105 35 1 25.4001 26.4977 9.85122 0.41 
106 36 2 7.90519 5.21216 0.172447 -0.82 
107 36 1 7.78758 5.24558 1.17463 0.41 
108 36 1 7.47485 5.9652 30.62 0.41 
109 37 2 11.0276 29.8907 23.9536 -0.82 
110 37 1 11.3498 30.8716 24.0931 0.41 
111 37 1 11.8364 29.4889 23.4461 0.41 
112 38 2 14.0737 6.65489 2.84265 -0.82 
113 38 1 13.2856 6.00599 2.66839 0.41 
114 38 1 14.6421 6.34525 3.61454 0.41 
115 39 2 3.32134 17.1398 2.35104 -0.82 
116 39 1 3.25876 18.0991 2.16976 0.41 
117 39 1 2.37658 16.7175 2.44066 0.41 
118 40 2 8.3159 0.472914 29.5355 -0.82 
119 40 1 9.22326 -0.0105191 29.5817 0.41 
120 40 1 7.4863 30.8446 29.6368 0.41 
121 41 2 7.10428 12.6421 13.9287 -0.82 
122 41 1 7.85055 13.1116 13.4731 0.41 
123 41 1 7.5058 11.7333 14.3033 0.41 
124 42 2 26.1154 21.1588 3.27701 -0.82 
125 42 1 25.7497 21.8806 3.93977 0.41 
126 42 1 26.2774 21.5968 2.36592 0.41 
127 43 2 28.8531 25.5437 28.5267 -0.82 
128 43 1 28.4357 25.4101 29.4494 0.41 
129 43 1 28.5792 24.749 27.9719 0.41 
130 44 2 8.00614 3.33893 6.39014 -0.82 
131 44 1 8.93028 3.79424 6.64574 0.41 
132 44 1 7.19499 3.6922 6.87068 0.41 
133 45 2 22.8173 13.4168 23.0171 -0.82 
134 45 1 23.2497 13.5391 22.0996 0.41 
135 45 1 21.921 13.8746 22.8694 0.41 
136 46 2 14.5681 20.7318 17.7858 -0.82 
137 46 1 14.2619 21.3337 18.5262 0.41 
138 46 1 15.603 20.8667 17.9026 0.41 
139 47 2 5.56994 4.96156 27.8188 -0.82 
140 47 1 6.60784 4.93257 27.8007 0.41 
141 47 1 5.27777 5.28934 26.8812 0.41 
142 48 2 26.2803 8.73451 26.4253 -0.82 
143 48 1 26.2549 9.73995 26.18 0.41 
144 48 1 26.7015 8.30022 25.6115 0.41 
145 49 2 19.6588 2.27569 25.2685 -0.82 
146 49 1 19.5018 3.1492 24.801 0.41 
147 49 1 20.6492 2.13741 25.3851 0.41 
148 50 2 25.4213 28.6683 13.6547 -0.82 
149 50 1 24.7489 28.3707 12.9166 0.41 
150 50 1 25.8107 27.7986 13.9905 0.41 
151 51 2 21.9849 8.20654 10.8013 -0.82 
152 51 1 22.2139 9.19577 10.983 0.41 
153 51 1 21.5508 7.86076 11.6817 0.41 
154 52 2 12.8308 24.2683 26.6075 -0.82 
155 52 1 13.3513 24.2013 27.5256 0.41 
156 52 1 13.0221 23.366 26.0606 0.41 
157 53 2 23.456 21.5065 22.0572 -0.82 
158 53 1 24.3414 21.1701 22.237 0.41 
159 53 1 22.7142 20.8252 22.0938 0.41 
160 54 2 27.4413 17.3232 14.9588 -0.82 
161 54 1 26.738 16.8367 14.4182 0.41 
162 54 1 26.9599 18.1445 15.3002 0.41 
163 55 2 12.9665 0.813441 6.89074 -0.82 
164 55 1 13.035 0.397266 5.95267 0.41 
165 55 1 12.2621 0.221508 7.25132 0.41 
166 56 2 16.7182 24.4329 29.505 -0.82 
167 56 1 17.6197 24.7316 29.1306 0.41 
168 56 1 16.5683 24.9275 30.3815 0.41 
169 57 2 10.1027 15.9051 28.9915 -0.82 
170 57 1 9.21599 15.7676 29.5017 0.41 
171 57 1 10.9478 15.5766 29.4653 0.41 
172 58 2 28.5839 12.698 19.8835 -0.82 
173 58 1 28.4521 11.8003 19.3437 0.41 
174 58 1 27.9384 13.4324 19.5041 0.41 
175 59 2 7.41768 11.5622 5.54114 -0.82 
176 59 1 6.38681 11.6437 5.78719 0.41 
177 59 1 7.81377 10.798 6.079 0.41 
178 60 2 1.54946 4.89728 6.91181 -0.82 
179 60 1 1.14768 5.82102 6.92884 0.41 
180 60 1 2.08681 4.81357 6.03253 0.41 
181 61 2 26.4867 11.3512 1.98343 -0.82 
182 61 1 26.5534 10.3065 2.0621 0.41 
183 61 1 26.3377 11.7224 1.04466 0.41 
184 62 2 10.5869 9.48371 13.794 -0.82 
185 62 1 9.88717 9.25228 13.0635 0.41 
186 62 1 10.8743 10.3994 13.4919 0.41 
187 63 2 16.1499 12.8978 10.1794 -0.82 
188 63 1 15.3728 13.573 9.96818 0.41 
189 63 1 15.7727 11.9898 9.83342 0.41 
190 64 2 30.5222 6.36655 22.0082 -0.82 
191 64 1 0.46808 6.36596 22.3717 0.41 
192 64 1 30.3805 5.92765 21.0941 0.41 
193 65 2 29.2715 25.7202 20.4243 -0.82 
194 65 1 28.5353 25.0969 20.8511 0.41 
195 65 1 29.853 25.163 19.8044 0.41 
196 66 2 0.355738 12.9688 19.1472 -0.82 
197 66 1 0.592766 13.7071 18.4233 0.41 
198 66 1 30.3422 12.7087 19.3812 0.41 
199 67 2 1.74645 28.7521 22.4115 -0.82 
200 67 1 1.62489 29.7312 22.7745 0.41 
201 67 1 2.64962 28.5366 22.8898 0.41 
202 68 2 18.0039 14.6659 21.6208 -0.82 
203 68 1 17.0144 14.8166 21.3421 0.41 
204 68 1 17.9678 13.9668 22.3603 0.41 
205 69 2 2.89396 26.7166 29.8182 -0.82 
206 69 1 2.71872 27.4361 30.5723 0.41 
207 69 1 2.36497 25.8929 30.1224 0.41 
208 70 2 21.019 12.8887 0.394942 -0.82 
209 70 1 21.3797 12.1982 30.6925 0.41 
210 70 1 21.3277 12.8463 1.38184 0.41 
211 71 2 11.3571 5.58536 2.56956 -0.82 
212 71 1 11.5543 4.95794 3.37131 0.41 
213 71 1 10.6727 6.17116 3.05643 0.41 
214 72 2 4.89377 0.274236 13.0029 -0.82 
215 72 1 4.12262 0.92271 12.826 0.41 
216 72 1 4.46712 30.6215 13.7535 0.41 
217 73 2 0.74534 25.8338 26.565 -0.82 
218 73 1 30.9667 26.046 25.907 0.41 
219 73 1 1.52175 26.5264 26.5126 0.41 
220 74 2 13.4079 12.3302 21.388 -0.82 
221 74 1 12.945 12.4209 20.4333 0.41 
222 74 1 14.2142 11.5896 21.2799 0.41 
223 75 2 22.38 17.806 1.13974 -0.82 
224 75 1 22.1224 16.7966 1.07639 0.41 
225 75 1 22.8295 17.958 2.06428 0.41 
226 76 2 17.3195 6.26751 11.186 -0.82 
227 76 1 17.6072 6.05589 10.2568 0.41 
228 76 1 17.5621 5.44779 11.7351 0.41 
229 77 2 2.48465 28.9385 0.632022 -0.82 
230 77 1 2.10494 29.7537 31.2425 0.41 
231 77 1 2.36783 29.0233 1.66649 0.41 
232 78 2 26.5367 9.12852 8.63285 -0.82 
233 78 1 27.4883 9.31573 8.20757 0.41 
234 78 1 26.4964 8.11985 8.90191 0.41 
235 79 2 17.7326 12.6331 15.6952 -0.82 
236 79 1 18.1702 12.0681 16.4377 0.41 
237 79 1 16.9643 12.1373 15.2505 0.41 
238 80 2 17.3837 14.2226 7.27086 -0.82 
239 80 1 17.4197 13.19 7.35184 0.41 
240 80 1 16.8746 14.5635 6.45905 0.41 
241 81 2 17.312 23.5394 26.8951 -0.82 
242 81 1 17.9079 24.211 27.3984 0.41 
243 81 1 17.6797 22.5468 26.9623 0.41 
244 82 2 19.1641 6.18239 14.7574 -0.82 
245 82 1 18.9465 7.07837 15.2589 0.41 
246 82 1 18.2591 5.67786 14.7795 0.41 
247 83 2 7.21798 1.00821 1.81935 -0.82 
248 83 1 6.88794 1.71959 1.07814 0.41 
249 83 1 7.3108 1.52952 2.70033 0.41 
250 84 2 8.67429 9.36825 11.8977 -0.82 
251 84 1 9.20005 9.08614 11.0579 0.41 
252 84 1 7.79465 8.84639 11.7758 0.41 
253 85 2 10.4283 5.85971 30.5179 -0.82 
254 85 1 10.2969 5.52751 29.5691 0.41 
255 85 1 9.45572 5.74174 -0.130606 0.41 
256 86 2 9.33712 12.8388 18.8288 -0.82 
257 86 1 8.40573 13.1117 19.1274 0.41 
258 86 1 9.24276 11.8578 18.4662 0.41 
259 87 2 16.1122 14.0902 17.6993 -0.82 
260 87 1 16.8178 13.6349 17.0888 0.41 
261 87 1 16.0615 15.1017 17.4256 0.41 
262 88 2 8.45619 13.6409 22.2864 -0.82 
263 88 1 8.90073 12.7355 22.1154 0.41 
264 88 1 9.1854 14.3052 22.1125 0.41 
265 89 2 19.8142 30.0531 27.5298 -0.82 
266 89 1 20.6166 30.5439 27.0954 0.41 
267 89 1 19.4191 30.6637 28.2819 0.41 
268 90 2 12.258 7.66671 19.0158 -0.82 
269 90 1 11.8227 6.99879 19.7601 0.41 
270 90 1 11.7841 8.56107 19.161 0.41 
271 91 2 2.38019 9.30086 30.6194 -0.82 
272 91 1 2.40516 9.91902 29.7606 0.41 
273 91 1 3.25465 8.70204 30.4832 0.41 
274 92 2 19.6145 26.9535 20.8741 -0.82 
275 92 1 19.8949 26.9303 19.9129 0.41 
276 92 1 19.474 27.9295 21.1574 0.41 
277 93 2 5.64889 17.3543 5.64003 -0.82 
278 93 1 6.23587 17.4393 4.80324 0.41 
279 93 1 6.02924 16.653 6.26997 0.41 
280 94 2 19.5746 9.46906 13.778 -0.82 
281 94 1 20.0556 10.1482 14.4397 0.41 
282 94 1 19.8194 9.74155 12.7954 0.41 
283 95 2 17.5902 2.26447 14.3997 -0.82 
284 95 1 17.5589 2.36822 13.3894 0.41 
285 95 1 18.5531 2.42575 14.6939 0.41 
286 96 2 26.1758 19.2928 19.8438 -0.82 
287 96 1 26.0993 19.344 20.8865 0.41 
288 96 1 25.2566 19.3458 19.396 0.41 
289 97 2 28.8544 -0.0572775 27.4197 -0.82 
290 97 1 28.6345 0.909734 27.5048 0.41 
291 97 1 28.8121 30.8117 26.3935 0.41 
292 98 2 24.4238 1.37671 7.14052 -0.82 
293 98 1 23.6657 1.99398 7.40065 0.41 
294 98 1 25.2725 1.94331 7.08771 0.41 
295 99 2 1.34229 12.7341 10.2808 -0.82 
296 99 1 1.06514 13.0845 11.217 0.41 
297 99 1 1.17344 13.5397 9.61208 0.41 
298 100 2 24.6123 18.0091 17.3055 -0.82 
299 100 1 24.1502 17.6491 16.4676 0.41 
300 100 1 25.0024 18.8557 16.9035 0.41 
301 101 2 10.6996 11.5061 27.2047 -0.82 
302 101 1 10.3675 10.5482 27.0551 0.41 
303 101 1 10.9064 11.62 28.2432 0.41 
304 102 2 26.0897 19.7566 25.1761 -0.82 
305 102 1 27.0219 19.6002 25.6289 0.41 
306 102 1 26.0215 20.7702 25.0301 0.41 
307 103 2 16.7934 30.3278 23.7226 -0.82 
308 103 1 17.4632 29.5987 23.4153 0.41 
309 103 1 17.1421 30.5551 24.63 0.41 
310 104 2 22.1239 20.1447 18.033 -0.82 
311 104 1 22.3546 19.1488 18.0567 0.41 
312 104 1 21.3971 20.457 17.3017 0.41 
313 105 2 29.6252 16.5712 20.1792 -0.82 
314 105 1 29.9371 16.1648 19.3366 0.41 
315 105 1 29.3173 17.4905 19.89 0.41 
316 106 2 1.08888 5.85901 9.95221 -0.82 
317 106 1 0.940553 4.83224 9.79807 0.41 
318 106 1 1.97563 6.24826 9.59149 0.41 
319 107 2 21.9269 30.2304 19.0856 -0.82 
320 107 1 22.3564 29.488 19.6804 0.41 
321 107 1 22.4189 30.3745 18.1935 0.41 
322 108 2 30.8934 27.4362 29.2722 -0.82 
323 108 1 0.841552 27.2242 28.9314 0.41 
324 108 1 30.1653 26.8097 28.98 0.41 
325 109 2 20.178 20.922 28.4988 -0.82 
326 109 1 20.6488 20.1812 29.0086 0.41 
327 109 1 20.9498 21.5035 28.2527 0.41 
328 110 2 23.3991 8.20434 0.606962 -0.82 
329 110 1 23.5934 9.24036 0.545797 0.41 
330 110 1 22.5498 8.07376 1.12123 0.41 
331 111 2 25.8456 2.57337 10.6379 -0.82 
332 111 1 25.7855 1.52746 10.733 0.41 
333 111 1 26.7643 2.91597 10.3818 0.41 
334 112 2 25.8381 16.865 25.5289 -0.82 
335 112 1 26.1034 17.8061 25.8024 0.41 
336 112 1 25.1842 16.9644 24.7049 0.41 
337 113 2 14.2911 17.4484 8.57096 -0.82 
338 113 1 13.9302 17.1229 7.70345 0.41 
339 113 1 14.4217 18.4748 8.5771 0.41 
340 114 2 11.3407 15.0259 5.51384 -0.82 
341 114 1 10.9948 15.6767 4.80145 0.41 
342 114 1 10.8425 15.294 6.37629 0.41 
343 115 2 7.95785 10.2496 14.5887 -0.82 
344 115 1 7.4043 9.51729 14.2179 0.41 
345 115 1 8.94318 9.931 14.3287 0.41 
346 116 2 2.00934 30.0572 7.34858 -0.82 
347 116 1 2.54206 30.2895 8.26466 0.41 
348 116 1 2.68015 29.4598 6.77186 0.41 
349 117 2 15.1549 27.5886 13.8482 -0.82 
350 117 1 14.9435 28.6039 13.8457 0.41 
351 117 1 15.3323 27.3361 14.8302 0.41 
352 118 2 29.9296 18.5619 8.80745 -0.82 
353 118 1 29.2803 19.032 9.53154 0.41 
354 118 1 30.4182 19.3535 8.31104 0.41 
355 119 2 13.4147 23.3045 8.20033 -0.82 
356 119 1 13.1308 24.1608 7.80411 0.41 
357 119 1 12.7101 22.5488 8.03998 0.41 
358 120 2 27.2827 8.96615 30.5796 -0.82 
359 120 1 27.4159 8.84151 0.610201 0.41 
360 120 1 27.0897 9.99293 30.5061 0.41 
361 121 2 17.6489 17.4509 25.776 -0.82 
362 121 1 18.2398 16.5963 25.4057 0.41 
363 121 1 18.0926 18.1761 25.1716 0.41 
364 122 2 29.2086 14.2455 27.1109 -0.82 
365 122 1 29.0617 13.8197 26.2337 0.41 
366 122 1 30.159 14.5465 27.2715 0.41 
367 123 2 17.4263 18.4391 15.3964 -0.82 
368 123 1 16.619 19.0652 15.31 0.41 
369 123 1 18.2751 19.0224 15.2616 0.41 
370 124 2 29.0416 30.7471 24.6436 -0.82 
371 124 1 28.9675 30.2978 23.6861 0.41 
372 124 1 30.1095 30.912 24.7729 0.41 
373 125 2 27.0937 21.8347 0.929633 -0.82 
374 125 1 27.9451 22.265 1.33742 0.41 
375 125 1 27.2351 21.1909 0.153068 0.41 
376 126 2 24.3652 4.32586 19.564 -0.82 
377 126 1 24.1911 3.32564 19.756 0.41 
378 126 1 23.4286 4.69061 19.5356 0.41 
379 127 2 25.6609 19.2967 22.5275 -0.82 
380 127 1 25.9331 19.4883 23.5007 0.41 
381 127 1 25.0759 18.418 22.4256 0.41 
382 128 2 1.38812 23.273 27.3005 -0.82 
383 128 1 1.71048 22.879 26.4183 0.41 
384 128 1 1.05165 24.1419 26.8652 0.41 
385 129 2 0.957867 19.0941 26.961 -0.82 
386 129 1 0.781772 18.3335 27.6195 0.41 
387 129 1 0.576311 18.9204 26.0147 0.41 
388 130 2 19.951 15.595 3.36568 -0.82 
389 130 1 19.4837 16.4813 3.42975 0.41 
390 130 1 20.7164 15.6579 2.68092 0.41 
391 131 2 14.3868 13.5787 13.1317 -0.82 
392 131 1 13.8988 13.2352 14.0096 0.41 
393 131 1 15.248 13.0689 13.1842 0.41 
394 132 2 5.50813 23.8917 29.2692 -0.82 
395 132 1 5.07776 24.5777 28.664 0.41 
396 132 1 6.54775 23.9758 29.2782 0.41 
397 133 2 18.4737 22.2094 30.1767 -0.82 
398 133 1 18.8632 21.556 29.5028 0.41 
399 133 1 17.7624 22.8572 29.8233 0.41 
400 134 2 2.70726 21.0949 11.1112 -0.82 
401 134 1 3.52443 20.613 11.5464 0.41 
402 134 1 1.83294 20.8682 11.6833 0.41 
403 135 2 8.85076 0.99945 17.6776 -0.82 
404 135 1 9.4114 1.6989 18.1437 0.41 
405 135 1 8.06286 1.43842 17.2071 0.41 
406 136 2 9.10491 23.6081 10.6592 -0.82 
407 136 1 8.46973 23.8269 11.3978 0.41 
408 136 1 8.90487 22.612 10.3961 0.41 
409 137 2 15.7958 21.0962 1.85826 -0.82 
410 137 1 16.3775 20.2623 1.71191 0.41 
411 137 1 16.3864 21.9831 1.87407 0.41 
412 138 2 20.3588 19.4272 10.0747 -0.82 
413 138 1 19.5616 19.4385 9.39425 0.41 
414 138 1 20.2904 20.1303 10.819 0.41 
415 139 2 22.568 13.7163 27.1818 -0.82 
416 139 1 22.8968 14.4846 27.8681 0.41 
417 139 1 23.2595 13.6208 26.3667 0.41 
418 140 2 14.3376 2.26658 20.6868 -0.82 
419 140 1 13.5237 1.69782 20.6055 0.41 
420 140 1 14.9644 1.97724 21.4662 0.41 
421 141 2 1.5174 11.6294 14.9855 -0.82 
422 141 1 0.976759 10.9597 14.4305 0.41 
423 141 1 0.983715 12.4304 15.3299 0.41 
424 142 2 16.5128 27.341 16.5332 -0.82 
425 142 1 16.5771 26.3204 16.7707 0.41 
426 142 1 15.9329 27.8868 17.2681 0.41 
427 143 2 19.8799 9.04939 4.3659 -0.82 
428 143 1 19.3197 8.72463 3.57789 0.41 
429 143 1 19.8729 10.0701 4.49733 0.41 
430 144 2 23.4436 24.5174 14.7242 -0.82 
431 144 1 23.1752 24.9654 13.8759 0.41 
432 144 1 23.407 25.2505 15.5173 0.41 
433 145 2 3.84685 11.2776 16.1968 -0.82 
434 145 1 4.11376 10.2906 16.1657 0.41 
435 145 1 2.93748 11.4078 15.7488 0.41 
436 146 2 23.8784 20.445 28.6434 -0.82 
437 146 1 24.4817 21.2478 28.8048 0.41 
438 146 1 23.2042 20.6735 27.8798 0.41 
439 147 2 3.03989 3.14402 24.9478 -0.82 
440 147 1 2.19718 2.98672 25.4515 0.41 
441 147 1 3.54832 3.93156 25.2078 0.41 
442 148 2 29.4792 11.3396 28.648 -0.82 
443 148 1 29.3262 10.8617 27.7402 0.41 
444 148 1 30.2248 11.9586 28.7214 0.41 
445 149 2 4.60862 3.80573 3.65389 -0.82 
446 149 1 4.89685 4.13257 2.74681 0.41 
447 149 1 5.35556 4.21902 4.23689 0.41 
448 150 2 26.4593 8.13597 15.4265 -0.82 
449 150 1 26.51 9.16886 15.2045 0.41 
450 150 1 25.5885 7.76005 14.9392 0.41 
451 151 2 18.8333 6.78462 18.5836 -0.82 
452 151 1 18.6949 7.35282 19.3909 0.41 
453 151 1 19.1742 7.35341 17.7629 0.41 
454 152 2 7.51657 13.5988 27.6846 -0.82 
455 152 1 8.35703 13.6327 27.0576 0.41 
456 152 1 7.74738 13.0517 28.5284 0.41 
457 153 2 17.7001 23.0679 9.35087 -0.82 
458 153 1 17.0073 22.6114 8.7558 0.41 
459 153 1 17.2272 23.8465 9.86391 0.41 
460 154 2 30.0427 19.5616 4.20788 -0.82 
461 154 1 30.4479 20.4904 4.22406 0.41 
462 154 1 -0.0564816 19.0247 4.41821 0.41 
463 155 2 23.8299 7.37849 14.2918 -0.82 
464 155 1 22.868 7.23212 14.0593 0.41 
465 155 1 24.008 6.78018 15.1389 0.41 
466 156 2 22.9037 27.316 12.6986 -0.82 
467 156 1 23.0808 26.3898 12.3064 0.41 
468 156 1 22.0434 27.1774 13.2707 0.41 
469 157 2 5.25076 10.5646 13.0341 -0.82 
470 157 1 5.89385 11.2855 13.3525 0.41 
471 157 1 4.85661 10.1097 13.8446 0.41 
472 158 2 26.0177 25.4099 23.8247 -0.82 
473 158 1 25.7277 25.3093 22.8569 0.41 
474 158 1 25.7848 26.3804 24.1314 0.41 
475 159 2 6.3485 0.228733 27.064 -0.82 
476 159 1 6.17002 30.7209 27.9447 0.41 
477 159 1 7.20373 0.676682 27.2602 0.41 
478 160 2 29.1994 20.3531 23.4009 -0.82 
479 160 1 28.5623 21.0641 23.0365 0.41 
480 160 1 30.1618 20.7372 23.5813 0.41 
481 161 2 8.17226 4.63652 13.9621 -0.82 
482 161 1 7.77786 3.64991 13.958 0.41 
483 161 1 7.89171 5.00301 13.0718 0.41 
484 162 2 2.44723 5.45313 4.08537 -0.82 
485 162 1 3.23981 4.80915 3.98661 0.41 
486 162 1 1.69646 5.23928 3.38811 0.41 
487 163 2 16.4335 24.5524 11.419 -0.82 
488 163 1 16.7108 25.4975 11.4151 0.41 
489 163 1 16.7378 24.0433 12.3123 0.41 
490 164 2 19.8208 13.6273 12.5168 -0.82 
491 164 1 19.3396 14.1816 13.2056 0.41 
492 164 1 19.5819 14.0218 11.5947 0.41 
493 165 2 16.1134 29.8891 10.185 -0.82 
494 165 1 16.5068 29.3456 9.36417 0.41 
495 165 1 15.0771 29.7033 10.2028 0.41 
496 166 2 15.5736 16.1457 13.2559 -0.82 
497 166 1 15.5349 16.4595 12.2451 0.41 
498 166 1 14.9784 15.3013 13.2884 0.41 
499 167 2 30.0709 8.60999 15.827 -0.82 
500 167 1 29.4173 7.8704 15.7096 0.41 
501 167 1 30.2275 8.58165 16.8753 0.41 
502 168 2 25.237 27.8318 0.937614 -0.82 
503 168 1 25.5391 28.4167 1.74805 0.41 
504 168 1 25.7366 28.3584 0.205911 0.41 
505 169 2 7.69784 11.129 9.42107 -0.82 
506 169 1 8.13378 11.2714 10.3425 0.41 
507 169 1 7.46192 12.0749 9.06736 0.41 
508 170 2 27.7827 20.987 29.255 -0.82 
509 170 1 27.7424 20.0748 29.829 0.41 
510 170 1 28.6981 21.1866 28.8247 0.41 
511 171 2 2.53878 17.8032 16.1023 -0.82 
512 171 1 3.19433 16.9861 16.185 0.41 
513 171 1 3.08411 18.543 16.4646 0.41 
514 172 2 2.31778 0.267495 23.0248 -0.82 
515 172 1 2.27502 1.23268 22.6913 0.41 
516 172 1 1.92552 31.355 23.999 0.41 
517 173 2 27.5417 22.0391 16.1091 -0.82 
518 173 1 28.4224 22.4849 16.4069 0.41 
519 173 1 27.0881 22.7989 15.6282 0.41 
520 174 2 14.0579 21.2788 30.8277 -0.82 
521 174 1 14.7648 21.3499 0.592764 0.41 
522 174 1 13.535 20.3647 30.797 0.41 
523 175 2 7.70076 17.576 25.9479 -0.82 
524 175 1 8.25035 18.3202 25.5295 0.41 
525 175 1 8.45335 16.8928 26.1099 0.41 
526 176 2 15.0794 24.988 22.1704 -0.82 
527 176 1 14.1215 25.1774 22.392 0.41 
528 176 1 15.4759 25.1593 23.0853 0.41 
529 177 2 20.5199 5.96453 29.4881 -0.82 
530 177 1 20.544 5.26391 28.71 0.41 
531 177 1 21.4348 6.12415 29.9339 0.41 
532 178 2 26.4148 29.8603 20.9168 -0.82 
533 178 1 26.5282 30.4844 20.1235 0.41 
534 178 1 26.654 28.9111 20.677 0.41 
535 179 2 22.777 2.99046 3.18938 -0.82 
536 179 1 23.7849 2.9568 3.00845 0.41 
537 179 1 22.3881 3.58111 2.42033 0.41 
538 180 2 26.3135 19.6156 15.6716 -0.82 
539 180 1 25.8759 19.9602 14.8509 0.41 
540 180 1 26.8321 20.4046 16.0801 0.41 
541 181 2 18.9643 25.2602 28.1239 -0.82 
542 181 1 18.7783 26.2168 27.9239 0.41 
543 181 1 19.7425 25.0455 28.762 0.41 
544 182 2 5.39112 7.42374 2.03606 -0.82 
545 182 1 4.9013 7.7432 1.18284 0.41 
546 182 1 4.65007 7.43297 2.68998 0.41 
547 183 2 4.58099 25.4786 4.36651 -0.82 
548 183 1 4.64716 25.4716 3.30815 0.41 
549 183 1 5.49088 25.042 4.681 0.41 
550 184 2 16.1862 22.1782 7.26226 -0.82 
551 184 1 15.5322 22.6059 6.58985 0.41 
552 184 1 16.8995 21.6792 6.69206 0.41 
553 185 2 19.9168 27.8681 18.3695 -0.82 
554 185 1 20.8524 28.1967 18.6685 0.41 
555 185 1 19.2762 28.6081 18.0438 0.41 
556 186 2 3.51194 7.43863 9.52708 -0.82 
557 186 1 3.1326 7.85269 10.3567 0.41 
558 186 1 4.16727 8.18686 9.12553 0.41 
559 187 2 25.3991 3.06643 28.3428 -0.82 
560 187 1 25.0105 3.27664 29.308 0.41 
561 187 1 25.768 3.91467 28.0121 0.41 
562 188 2 25.2361 12.3869 18.9869 -0.82 
563 188 1 25.895 13.092 18.573 0.41 
564 188 1 25.0873 11.4997 18.4035 0.41 
565 189 2 8.43633 19.5282 29.7576 -0.82 
566 189 1 8.55776 20.5185 29.4359 0.41 
567 189 1 8.94544 18.8988 29.0839 0.41 
568 190 2 13.5739 17.3698 25.5621 -0.82 
569 190 1 13.6021 17.2413 24.57 0.41 
570 190 1 14.0765 18.2545 25.6941 0.41 
571 191 2 24.9971 11.3837 12.3821 -0.82 
572 191 1 25.1201 11.2194 11.3724 0.41 
573 191 1 24.2411 10.8974 12.8691 0.41 
574 192 2 14.0779 5.80447 19.1591 -0.82 
575 192 1 13.3151 6.49155 19.0851 0.41 
576 192 1 14.8101 6.18923 18.5027 0.41 
577 193 2 8.68044 20.8128 10.5755 -0.82 
578 193 1 7.82849 20.8138 11.1611 0.41 
579 193 1 9.53063 20.909 11.1948 0.41 
580 194 2 23.2718 19.6734 25.3496 -0.82 
581 194 1 24.2532 19.9355 25.3231 0.41 
582 194 1 22.7317 20.1735 24.6782 0.41 
583 195 2 22.0886 10.8569 20.3628 -0.82 
584 195 1 22.629 11.7263 20.0795 0.41 
585 195 1 22.072 10.6993 21.3616 0.41 
586 196 2 8.74027 10.6402 2.82222 -0.82 
587 196 1 8.26074 10.7002 1.93627 0.41 
588 196 1 8.15943 11.1454 3.41702 0.41 
589 197 2 8.09745 2.98764 3.56181 -0.82 
590 197 1 7.84412 3.88013 3.13131 0.41 
591 197 1 8.14 3.09043 4.58192 0.41 
592 198 2 5.28763 26.6188 15.8473 -0.82 
593 198 1 5.91476 27.0849 16.478 0.41 
594 198 1 5.2679 27.1497 14.9804 0.41 
595 199 2 18.1325 12.9533 23.7139 -0.82 
596 199 1 17.7795 12.8677 24.6902 0.41 
597 199 1 18.1259 12.0634 23.2103 0.41 
598 200 2 6.73547 16.0401 9.51639 -0.82 
599 200 1 7.07808 15.9671 8.51853 0.41 
600 200 1 5.87485 15.5019 9.5967 0.41 
601 201 2 25.1495 23.9033 0.604139 -0.82 
602 201 1 25.1686 24.6945 30.9595 0.41 
603 201 1 26.0268 23.3897 0.577278 0.41 
604 202 2 2.7305 22.3074 2.60802 -0.82 
605 202 1 1.9286 21.9081 2.14047 0.41 
606 202 1 3.26854 22.6769 1.85437 0.41 
607 203 2 12.7841 9.29449 2.39964 -0.82 
608 203 1 13.2353 8.4173 2.75183 0.41 
609 203 1 12.1374 9.62164 3.12466 0.41 
610 204 2 21.4799 26.5964 2.3391 -0.82 
611 204 1 21.9512 27.4478 2.65442 0.41 
612 204 1 22.104 25.7868 2.24722 0.41 
613 205 2 22.2168 11.0356 25.7035 -0.82 
614 205 1 21.5027 10.8783 26.3912 0.41 
615 205 1 22.8098 11.8596 25.973 0.41 
616 206 2 27.3265 16.6355 5.01416 -0.82 
617 206 1 27.5058 17.6589 4.91474 0.41 
618 206 1 27.5314 16.1581 4.09461 0.41 
619 207 2 28.9645 9.93668 7.83907 -0.82 
620 207 1 29.2043 10.1263 6.86787 0.41 
621 207 1 29.7794 9.82536 8.41283 0.41 
622 208 2 8.86224 18.0455 16.2343 -0.82 
623 208 1 8.59189 18.2492 15.2624 0.41 
624 208 1 8.80461 18.8376 16.9745 0.41 
625 209 2 5.90037 12.7623 22.4869 -0.82 
626 209 1 6.85093 13.2152 22.3247 0.41 
627 209 1 5.67844 12.5233 21.4709 0.41 
628 210 2 7.71708 18.7486 13.6455 -0.82 
629 210 1 7.02457 18.3985 12.9667 0.41 
630 210 1 7.34305 19.6291 14.0374 0.41 
631 211 2 4.22154 14.9763 0.0285231 -0.82 
632 211 1 3.61694 15.63 0.410415 0.41 
633 211 1 5.22121 15.3588 31.2225 0.41 
634 212 2 20.5713 13.9012 5.37965 -0.82 
635 212 1 21.4232 14.0752 5.90299 0.41 
636 212 1 20.4583 14.7537 4.74572 0.41 
637 213 2 12.3127 4.30275 4.70013 -0.82 
638 213 1 12.1187 4.48273 5.70143 0.41 
639 213 1 13.3427 4.33199 4.59742 0.41 
640 214 2 4.67411 22.6066 15.9891 -0.82 
641 214 1 5.32402 23.3427 16.2449 0.41 
642 214 1 3.81763 22.8382 16.4443 0.41 
643 215 2 26.9908 26.3101 13.8578 -0.82 
644 215 1 26.5223 25.6836 14.5125 0.41 
645 215 1 27.6937 26.8405 14.39 0.41 
646 216 2 30.5587 12.6392 6.19607 -0.82 
647 216 1 30.3152 12.8201 7.15884 0.41 
648 216 1 0.556022 12.766 6.19128 0.41 
649 217 2 5.10783 3.34236 11.4385 -0.82 
650 217 1 5.41862 2.63433 12.1194 0.41 
651 217 1 5.12076 2.80649 10.5822 0.41 
652 218 2 30.8635 9.24606 18.4197 -0.82 
653 218 1 30.3221 8.9675 19.2611 0.41 
654 218 1 0.782174 9.37106 18.7748 0.41 
655 219 2 9.81415 15.7842 26.15 -0.82 
656 219 1 9.82565 14.7706 25.8702 0.41 
657 219 1 9.92791 15.9118 27.1676 0.41 
658 220 2 29.1363 12.8775 1.54737 -0.82 
659 220 1 29.5529 11.9922 1.23797 0.41 
660 220 1 28.2958 12.7101 2.08602 0.41 
661 221 2 22.5886 12.4676 16.9467 -0.82 
662 221 1 23.2061 11.6235 17.1004 0.41 
663 221 1 23.2019 13.2627 16.7801 0.41 
664 222 2 18.3668 29.479 16.284 -0.82 
665 222 1 17.64 30.2122 16.1535 0.41 
666 222 1 17.7534 28.635 16.2977 0.41 
667 223 2 11.2938 20.9985 7.73903 -0.82 
668 223 1 11.1932 20.0267 8.08606 0.41 
669 223 1 10.4248 21.4207 7.41704 0.41 
670 224 2 15.1308 2.31567 6.56125 -0.82 
671 224 1 14.3613 1.68115 6.87512 0.41 
672 224 1 15.0548 2.42771 5.53583 0.41 
673 225 2 28.064 4.93018 1.73059 -0.82 
674 225 1 27.2941 4.8851 2.42804 0.41 
675 225 1 28.8054 5.64783 1.96711 0.41 
676 226 2 13.6397 23.6953 10.7832 -0.82 
677 226 1 13.7019 23.6166 9.73203 0.41 
678 226 1 14.6149 23.8597 11.1615 0.41 
679 227 2 0.394181 10.5249 22.8073 -0.82 
680 227 1 0.961238 9.98782 23.5372 0.41 
681 227 1 0.992077 11.3734 22.5334 0.41 
682 228 2 11.6098 27.7441 29.8818 -0.82 
683 228 1 11.2876 27.735 28.9045 0.41 
684 228 1 12.1943 26.9785 29.959 0.41 
685 229 2 5.08944 16.9285 21.7231 -0.82 
686 229 1 5.08251 16.9188 22.7781 0.41 
687 229 1 5.71683 17.7083 21.6022 0.41 
688 230 2 15.612 16.8881 10.6939 -0.82 
689 230 1 15.0469 17.2801 9.89239 0.41 
690 230 1 16.2935 17.6768 11.0254 0.41 
691 231 2 29.1101 10.6742 5.14192 -0.82 
692 231 1 28.1039 10.9571 4.91811 0.41 
693 231 1 29.6343 11.5365 5.36725 0.41 
694 232 2 7.39294 4.55835 24.1446 -0.82 
695 232 1 7.56828 3.57703 23.9872 0.41 
696 232 1 6.35555 4.4032 24.1319 0.41 
697 233 2 8.5734 23.503 14.9715 -0.82 
698 233 1 8.66702 24.3222 15.5716 0.41 
699 233 1 8.13753 23.8052 14.0664 0.41 
700 234 2 25.6897 4.91777 22.08 -0.82 
701 234 1 25.0646 4.65374 21.3147 0.41 
702 234 1 25.5636 5.92523 22.273 0.41 
703 235 2 1.96426 6.72634 26.0603 -0.82 
704 235 1 2.78413 7.39825 26.1966 0.41 
705 235 1 1.62579 6.66323 27.0204 0.41 
706 236 2 16.293 0.401089 16.0738 -0.82 
707 236 1 16.5571 1.20397 15.5239 0.41 
708 236 1 15.8527 0.749177 16.9288 0.41 
709 237 2 23.4741 11.3028 6.1258 -0.82 
710 237 1 24.264 10.6545 5.99959 0.41 
711 237 1 22.8235 10.9568 5.43402 0.41 
712 238 2 20.7363 30.7315 11.4992 -0.82 
713 238 1 19.7367 30.3337 11.478 0.41 
714 238 1 21.4651 30.1589 11.0475 0.41 
715 239 2 7.10406 12.2603 0.989711 -0.82 
716 239 1 6.32185 11.61 0.666098 0.41 
717 239 1 6.75106 12.5944 1.90326 0.41 
718 240 2 12.7893 17.7414 12.8496 -0.82 
719 240 1 12.1952 17.7255 12.0424 0.41 
720 240 1 12.4447 17.1553 13.614 0.41 
721 241 2 9.14915 30.8656 22.1936 -0.82 
722 241 1 9.78271 30.6213 22.9545 0.41 
723 241 1 8.50197 0.545722 22.6685 0.41 
724 242 2 15.1622 19.9347 14.5125 -0.82 
725 242 1 14.6043 19.0922 14.639 0.41 
726 242 1 14.6254 20.7419 14.7932 0.41 
727 243 2 25.7211 30.5441 24.7332 -0.82 
728 243 1 25.3389 -0.150783 25.6206 0.41 
729 243 1 26.4856 0.145899 24.437 0.41 
730 244 2 24.6813 -0.0276617 14.7834 -0.82 
731 244 1 25.0565 30.1211 14.2721 0.41 
732 244 1 23.7381 0.116325 14.5139 0.41 
733 245 2 30.9534 9.85966 13.7441 -0.82 
734 245 1 30.1839 9.88429 13.0839 0.41 
735 245 1 30.4788 9.40693 14.5401 0.41 
736 246 2 13.9624 14.6681 10.7047 -0.82 
737 246 1 14.1181 14.0768 11.5477 0.41 
738 246 1 14.5752 15.5313 10.7679 0.41 
739 247 2 22.0271 11.0371 10.4736 -0.82 
740 247 1 21.7487 11.8804 9.83431 0.41 
741 247 1 22.7681 10.524 10.0329 0.41 
742 248 2 0.769024 14.8528 17.3321 -0.82 
743 248 1 1.0836 15.8398 17.4615 0.41 
744 248 1 31.3093 14.8421 16.434 0.41 
745 249 2 12.0094 12.1248 19.1955 -0.82 
746 249 1 11.8558 11.0986 19.349 0.41 
747 249 1 11.1203 12.5898 18.9435 0.41 
748 250 2 15.8408 1.18637 12.0521 -0.82 
749 250 1 15.8973 0.76921 11.102 0.41 
750 250 1 15.5424 0.492648 12.7383 0.41 
751 251 2 4.81239 24.8687 12.1164 -0.82 
752 251 1 5.0208 25.8569 12.0334 0.41 