ITEM: TIMESTEP
350200
ITEM: NUMBER OF ATOMS
3000
ITEM: BOX BOUNDS pp pp pp
0.0000000000000000e+00 3.1000000000000000e+01
0.0000000000000000e+00 3.1000000000000000e+01
0.0000000000000000e+00 3.1000000000000000e+01
ITEM: ATOMS id mol type x y z q 
1 1 2 16.8426 29.4365 7.62462 -0.82 
2 1 1 17.6536 28.9275 7.30797 0.41 
3 1 1 16.9683 30.4911 7.55242 0.41 
4 2 2 24.9612 7.2519 12.0008 -0.82 
5 2 1 24.7198 7.01969 12.9671 0.41 
6 2 1 24.1382 7.62105 11.5031 0.41 
7 3 2 3.6742 10.5816 3.53751 -0.82 
8 3 1 2.99732 9.8313 3.45714 0.41 
9 3 1 3.47417 11.3865 2.93199 0.41 
10 4 2 11.856 31.1457 20.8123 -0.82 
11 4 1 10.8998 0.0503474 21.1177 0.41 
12 4 1 12.3159 30.4443 21.4125 0.41 
13 5 2 20.8224 30.5864 6.65382 -0.82 
14 5 1 21.6536 29.9788 6.51347 0.41 
15 5 1 21.0657 0.382293 7.14435 0.41 
16 6 2 14.7052 28.3604 30.0337 -0.82 
17 6 1 15.0291 28.6618 30.9617 0.41 
18 6 1 14.7855 27.3282 29.984 0.41 
19 7 2 10.9719 12.2373 29.8899 -0.82 
20 7 1 9.98884 12.4267 29.874 0.41 
21 7 1 11.4131 13.0222 29.4647 0.41 
22 8 2 25.8854 24.8832 27.4895 -0.82 
23 8 1 25.9392 25.7432 28.0926 0.41 
24 8 1 26.796 24.5399 27.0821 0.41 
25 9 2 4.82838 9.64633 18.3441 -0.82 
26 9 1 3.97818 9.18548 18.7476 0.41 
27 9 1 4.94213 10.5866 18.8221 0.41 
28 10 2 29.3985 10.3121 25.8911 -0.82 
29 10 1 28.7339 9.98405 26.5796 0.41 
30 10 1 29.9222 9.48646 25.4695 0.41 
31 11 2 3.31747 13.8508 29.2167 -0.82 
32 11 1 3.80696 14.5278 29.8074 0.41 
33 11 1 3.78276 13.9002 28.3077 0.41 
34 12 2 16.3651 6.83495 17.4247 -0.82 
35 12 1 16.9146 6.45236 18.2271 0.41 
36 12 1 17.0091 7.33939 16.7674 0.41 
37 13 2 13.1449 27.4703 12.6392 -0.82 
38 13 1 14.0332 27.5649 13.1606 0.41 
39 13 1 13.2376 27.2407 11.6732 0.41 
40 14 2 13.5541 16.9561 1.91731 -0.82 
41 14 1 13.3497 17.7251 1.29732 0.41 
42 14 1 12.9302 16.9554 2.66661 0.41 
43 15 2 28.1568 19.9344 13.2992 -0.82 
44 15 1 28.8956 20.5494 13.5719 0.41 
45 15 1 28.801 19.0862 13.1596 0.41 
46 16 2 9.74902 19.4224 26.329 -0.82 
47 16 1 10.5643 19.1871 26.8474 0.41 
48 16 1 9.35407 20.363 26.628 0.41 
49 17 2 20.3874 22.9703 18.3455 -0.82 
50 17 1 20.5866 22.5431 17.4541 0.41 
51 17 1 19.5921 23.6624 18.1727 0.41 
52 18 2 29.5515 6.83129 13.4138 -0.82 
53 18 1 29.3083 6.21985 14.2501 0.41 
54 18 1 30.5737 6.64854 13.2365 0.41 
55 19 2 8.76544 20.0198 17.7862 -0.82 
56 19 1 9.27753 20.4581 18.5035 0.41 
57 19 1 7.82946 19.8345 18.1793 0.41 
58 20 2 23.6573 21.8933 18.9001 -0.82 
59 20 1 23.8109 21.8085 19.9032 0.41 
60 20 1 23.083 21.0823 18.6028 0.41 
61 21 2 10.0809 21.7807 19.5355 -0.82 
62 21 1 10.063 20.9842 20.2332 0.41 
63 21 1 11.0556 22.0661 19.5519 0.41 
64 22 2 23.821 20.9143 9.35077 -0.82 
65 22 1 23.0886 20.2626 8.97292 0.41 
66 22 1 24.6072 20.3391 9.33319 0.41 
67 23 2 3.84963 14.8013 9.08317 -0.82 
68 23 1 4.0082 14.0243 9.79534 0.41 
69 23 1 2.81588 14.9213 8.86337 0.41 
70 24 2 7.37821 3.08312 21.3746 -0.82 
71 24 1 6.8267 2.44917 20.6906 0.41 
72 24 1 7.4164 2.55692 22.2878 0.41 
73 25 2 28.103 8.44064 27.4524 -0.82 
74 25 1 27.2933 8.63742 26.8351 0.41 
75 25 1 27.7623 8.57182 28.4289 0.41 
76 26 2 26.7558 6.7128 9.10698 -0.82 
77 26 1 25.8344 6.24564 9.11969 0.41 
78 26 1 27.2339 6.38574 9.96335 0.41 
79 27 2 10.6622 16.9827 17.596 -0.82 
80 27 1 11.5726 17.4464 17.5229 0.41 
81 27 1 9.89829 17.2481 16.8891 0.41 
82 28 2 11.0119 6.40938 21.2144 -0.82 
83 28 1 10.321 5.81263 20.7283 0.41 
84 28 1 10.8224 6.38156 22.2106 0.41 
85 29 2 28.3486 27.7343 15.6535 -0.82 
86 29 1 28.0304 28.5006 16.2322 0.41 
87 29 1 29.2268 27.4669 16.1098 0.41 
88 30 2 18.3042 24.8098 21.8714 -0.82 
89 30 1 18.7714 25.5362 21.4024 0.41 
90 30 1 17.6808 24.3868 21.1893 0.41 
91 31 2 30.4333 27.1967 17.2287 -0.82 
92 31 1 30.0242 27.8421 17.9123 0.41 
93 31 1 0.32087 27.4839 16.9663 0.41 
94 32 2 14.517 4.50626 21.9641 -0.82 
95 32 1 13.5508 4.84463 21.6245 0.41 
96 32 1 14.5879 3.58652 21.4623 0.41 
97 33 2 13.46 20.8946 22.2459 -0.82 
98 33 1 12.5431 20.4658 22.563 0.41 
99 33 1 13.2243 21.3685 21.3589 0.41 
100 34 2 4.22604 14.3473 24.2048 -0.82 
101 34 1 5.02444 13.7729 23.9122 0.41 
102 34 1 4.64999 15.317 24.3155 0.41 
103 35 2 25.1577 27.2147 9.05389 -0.82 
104 35 1 24.9335 28.1564 9.39341 0.41 
105 35 1 25.3266 26.5681 9.83257 0.41 
106 36 2 8.30943 5.20353 0.284537 -0.82 
107 36 1 7.70089 5.31131 1.08473 0.41 
108 36 1 8.00117 6.01883 30.7017 0.41 
109 37 2 10.8829 30.1249 24.2096 -0.82 
110 37 1 11.3139 0.00202574 24.5647 0.41 
111 37 1 11.3604 29.8 23.3497 0.41 
112 38 2 14.0402 6.84036 3.15601 -0.82 
113 38 1 13.1246 6.37452 3.08294 0.41 
114 38 1 14.3474 6.66675 4.07293 0.41 
115 39 2 2.7299 16.8262 1.47822 -0.82 
116 39 1 2.53683 17.6742 0.929022 0.41 
117 39 1 1.8337 16.5294 1.8658 0.41 
118 40 2 8.30282 0.397979 29.1847 -0.82 
119 40 1 9.19894 30.9096 28.997 0.41 
120 40 1 7.48509 30.7722 29.1023 0.41 
121 41 2 7.51359 12.8299 13.7125 -0.82 
122 41 1 7.70503 13.3744 12.8669 0.41 
123 41 1 8.13827 12.0202 13.752 0.41 
124 42 2 26.0671 21.4004 3.46319 -0.82 
125 42 1 25.3515 21.9736 3.89055 0.41 
126 42 1 26.3165 21.9129 2.60097 0.41 
127 43 2 29.3373 25.1995 28.3902 -0.82 
128 43 1 28.8893 25.0876 29.29 0.41 
129 43 1 28.9434 24.5694 27.6718 0.41 
130 44 2 7.87638 3.51158 6.3206 -0.82 
131 44 1 8.61352 4.03939 6.82783 0.41 
132 44 1 6.95908 3.76215 6.72033 0.41 
133 45 2 22.7994 13.5756 22.9554 -0.82 
134 45 1 23.2213 13.5253 21.9974 0.41 
135 45 1 22.1658 14.353 23.0678 0.41 
136 46 2 14.3919 20.6112 17.4677 -0.82 
137 46 1 13.8868 21.1507 18.1249 0.41 
138 46 1 15.3412 21.0273 17.2929 0.41 
139 47 2 5.09005 4.79832 27.6706 -0.82 
140 47 1 6.12323 4.69276 27.5023 0.41 
141 47 1 4.64282 5.14716 26.7834 0.41 
142 48 2 26.0298 8.7773 25.8847 -0.82 
143 48 1 25.7182 9.55904 25.299 0.41 
144 48 1 26.5706 8.15272 25.2527 0.41 
145 49 2 19.3273 2.14459 24.6256 -0.82 
146 49 1 18.6909 2.81015 24.2682 0.41 
147 49 1 20.3101 2.42381 24.6025 0.41 
148 50 2 25.8246 28.4306 13.4994 -0.82 
149 50 1 24.925 27.9679 13.2694 0.41 
150 50 1 26.6674 27.8393 13.4945 0.41 
151 51 2 22.4034 8.18433 10.9384 -0.82 
152 51 1 22.311 9.18216 10.9881 0.41 
153 51 1 22.1148 7.90836 11.907 0.41 
154 52 2 12.8391 24.0523 26.5277 -0.82 
155 52 1 13.4397 23.6682 27.2897 0.41 
156 52 1 12.6131 23.2017 25.8942 0.41 
157 53 2 23.7986 21.4818 21.4868 -0.82 
158 53 1 24.5246 21.1324 22.0823 0.41 
159 53 1 23.2519 20.66 21.3253 0.41 
160 54 2 27.3886 17.3092 15.0943 -0.82 
161 54 1 26.8127 16.9244 14.3516 0.41 
162 54 1 27.1619 18.2899 15.2742 0.41 
163 55 2 12.7054 0.796181 6.76217 -0.82 
164 55 1 12.8654 0.494095 5.79329 0.41 
165 55 1 12.3033 0.0865216 7.29806 0.41 
166 56 2 16.5453 24.6093 29.8574 -0.82 
167 56 1 17.3903 24.8771 29.3312 0.41 
168 56 1 16.6329 25.031 30.8015 0.41 
169 57 2 10.2219 15.6832 28.4501 -0.82 
170 57 1 9.63426 15.4608 29.3128 0.41 
171 57 1 11.1257 15.5898 28.8352 0.41 
172 58 2 28.7571 12.624 19.4553 -0.82 
173 58 1 29.0331 11.7146 19.0687 0.41 
174 58 1 28.2361 13.199 18.7561 0.41 
175 59 2 7.56135 11.7423 5.20888 -0.82 
176 59 1 6.85174 11.4698 5.89794 0.41 
177 59 1 8.47353 11.7573 5.78193 0.41 
178 60 2 1.74723 5.32979 7.03168 -0.82 
179 60 1 1.44418 6.25957 7.16989 0.41 
180 60 1 1.8659 5.11065 6.01224 0.41 
181 61 2 26.7947 11.4976 1.86165 -0.82 
182 61 1 27.3844 10.6892 2.00002 0.41 
183 61 1 25.9681 11.4258 1.23043 0.41 
184 62 2 10.6238 9.45358 13.498 -0.82 
185 62 1 9.84817 9.17109 12.8788 0.41 
186 62 1 10.8776 10.4205 13.3478 0.41 
187 63 2 15.8785 13.0617 10.4246 -0.82 
188 63 1 15.1267 13.7612 10.3504 0.41 
189 63 1 15.6472 12.1197 10.0079 0.41 
190 64 2 30.7767 6.11364 21.8909 -0.82 
191 64 1 0.732317 5.94013 22.3052 0.41 
192 64 1 30.8756 5.62017 21.0171 0.41 
193 65 2 29.1822 25.3837 20.0869 -0.82 
194 65 1 28.476 24.9078 19.4892 0.41 
195 65 1 29.9875 24.7383 20.0501 0.41 
196 66 2 0.316836 13.1105 19.237 -0.82 
197 66 1 0.36774 13.9405 18.5727 0.41 
198 66 1 30.2926 12.8418 19.5952 0.41 
199 67 2 1.95275 28.3663 22.3968 -0.82 
200 67 1 1.85405 29.3651 22.7208 0.41 
201 67 1 2.16886 27.6958 23.1045 0.41 
202 68 2 17.7661 15.4065 22.0415 -0.82 
203 68 1 17.1864 15.1416 21.2451 0.41 
204 68 1 17.9755 14.582 22.6252 0.41 
205 69 2 2.72582 27.2673 29.3816 -0.82 
206 69 1 2.26071 27.9862 30.0139 0.41 
207 69 1 2.28997 26.337 29.6287 0.41 
208 70 2 20.8601 12.922 31.0914 -0.82 
209 70 1 21.0108 12.0394 30.4959 0.41 
210 70 1 21.3862 12.7063 0.99725 0.41 
211 71 2 11.6625 5.48335 2.85696 -0.82 
212 71 1 11.6269 4.81541 3.63246 0.41 
213 71 1 10.9627 6.20782 2.95837 0.41 
214 72 2 4.91721 30.6372 13.0913 -0.82 
215 72 1 4.22073 0.317491 12.7398 0.41 
216 72 1 4.63497 30.4698 14.114 0.41 
217 73 2 1.16997 25.565 26.7083 -0.82 
218 73 1 0.368542 25.6159 26.0325 0.41 
219 73 1 1.77343 26.3149 26.3853 0.41 
220 74 2 14.2615 12.8581 21.6881 -0.82 
221 74 1 13.2634 12.7668 21.2834 0.41 
222 74 1 14.7836 11.9095 21.5299 0.41 
223 75 2 22.3665 17.72 0.90822 -0.82 
224 75 1 21.9145 16.8411 0.705338 0.41 
225 75 1 22.5034 18.0318 1.89692 0.41 
226 76 2 17.844 5.93847 11.0161 -0.82 
227 76 1 18.1867 5.83312 10.0873 0.41 
228 76 1 17.8152 4.96644 11.3143 0.41 
229 77 2 1.69089 28.9124 0.224666 -0.82 
230 77 1 1.51121 29.6184 30.5665 0.41 
231 77 1 1.60728 29.2958 1.22143 0.41 
232 78 2 26.6214 9.41322 8.44254 -0.82 
233 78 1 27.6071 9.44343 8.11104 0.41 
234 78 1 26.5923 8.46132 8.85428 0.41 
235 79 2 17.8165 13.0922 15.46 -0.82 
236 79 1 18.643 12.574 15.6302 0.41 
237 79 1 17.2223 12.2635 15.2948 0.41 
238 80 2 17.6914 14.3452 7.67845 -0.82 
239 80 1 18.3281 13.5589 7.6235 0.41 
240 80 1 17.2488 14.3649 6.74081 0.41 
241 81 2 17.646 23.617 26.5843 -0.82 
242 81 1 17.8736 24.1528 27.442 0.41 
243 81 1 17.5917 22.6149 26.7265 0.41 
244 82 2 19.0259 6.29538 14.7027 -0.82 
245 82 1 18.9495 6.92383 15.5593 0.41 
246 82 1 18.072 5.93139 14.4365 0.41 
247 83 2 6.88999 0.821303 1.98845 -0.82 
248 83 1 6.77346 1.26901 1.03051 0.41 
249 83 1 7.23997 1.59331 2.6114 0.41 
250 84 2 8.80805 9.00684 11.7009 -0.82 
251 84 1 9.08936 8.81022 10.7424 0.41 
252 84 1 7.88292 8.70421 11.9726 0.41 
253 85 2 10.5134 5.64962 29.8722 -0.82 
254 85 1 10.2172 5.19855 28.9751 0.41 
255 85 1 9.92589 5.46302 30.69 0.41 
256 86 2 9.75057 12.8568 18.6113 -0.82 
257 86 1 8.82829 13.2534 18.8133 0.41 
258 86 1 9.63761 11.9299 18.1489 0.41 
259 87 2 16.2718 13.7931 17.4337 -0.82 
260 87 1 16.929 13.5419 16.6127 0.41 
261 87 1 16.1306 14.8341 17.3809 0.41 
262 88 2 8.41109 13.4897 22.315 -0.82 
263 88 1 9.14417 12.7496 22.2095 0.41 
264 88 1 8.77947 14.3077 22.7783 0.41 
265 89 2 20.1419 30.0774 27.8284 -0.82 
266 89 1 21.002 30.387 27.3368 0.41 
267 89 1 19.7787 30.9506 28.3211 0.41 
268 90 2 12.228 7.2734 18.9709 -0.82 
269 90 1 11.8454 6.79947 19.8672 0.41 
270 90 1 12.0194 8.28027 19.1073 0.41 
271 91 2 2.8173 9.519 30.8178 -0.82 
272 91 1 2.51742 10.0893 30.0038 0.41 
273 91 1 3.26198 8.64527 30.4834 0.41 
274 92 2 19.5838 27.0757 20.9923 -0.82 
275 92 1 19.9605 27.1517 20.0691 0.41 
276 92 1 19.5266 28.0382 21.3424 0.41 
277 93 2 5.72099 17.2589 5.84603 -0.82 
278 93 1 6.00047 18.2245 5.74536 0.41 
279 93 1 6.56789 16.9162 6.35717 0.41 
280 94 2 19.1502 9.51704 14.3387 -0.82 
281 94 1 19.7815 10.227 14.7217 0.41 
282 94 1 19.2889 9.76201 13.3276 0.41 
283 95 2 17.8077 1.91002 14.3526 -0.82 
284 95 1 18.3636 1.33125 13.7332 0.41 
285 95 1 18.48 2.58325 14.7598 0.41 
286 96 2 26.2299 19.7617 19.6444 -0.82 
287 96 1 25.781 19.7564 20.5658 0.41 
288 96 1 25.634 20.0919 18.9087 0.41 
289 97 2 29.2495 0.271224 27.2248 -0.82 
290 97 1 28.917 1.2182 27.3887 0.41 
291 97 1 29.1632 31.0797 26.1917 0.41 
292 98 2 24.3009 1.64031 6.86587 -0.82 
293 98 1 23.4618 1.96991 7.33186 0.41 
294 98 1 25.0578 2.3225 7.09663 0.41 
295 99 2 1.17549 12.4893 10.4091 -0.82 
296 99 1 0.77867 12.9123 11.242 0.41 
297 99 1 1.2371 13.2936 9.78144 0.41 
298 100 2 24.5298 17.9764 17.2174 -0.82 
299 100 1 23.9651 17.5718 16.472 0.41 
300 100 1 25.1891 18.7179 16.8901 0.41 
301 101 2 10.5839 10.9807 27.2339 -0.82 
302 101 1 10.6266 9.98512 26.9424 0.41 
303 101 1 10.304 11.0951 28.227 0.41 
304 102 2 26.3833 19.7771 24.9117 -0.82 
305 102 1 27.1754 19.8542 25.5892 0.41 
306 102 1 26.0147 20.6946 24.634 0.41 
307 103 2 16.7757 30.1588 23.7022 -0.82 
308 103 1 17.2642 29.3645 23.3221 0.41 
309 103 1 17.2104 30.4778 24.5276 0.41 
310 104 2 22.2775 19.7488 17.8765 -0.82 
311 104 1 21.804 18.8358 17.9332 0.41 
312 104 1 21.8004 20.2109 17.0697 0.41 
313 105 2 29.3837 16.5233 20.4447 -0.82 
314 105 1 29.7043 15.9802 19.6823 0.41 
315 105 1 28.9854 17.3632 20.0918 0.41 
316 106 2 1.39204 5.74578 10.1521 -0.82 
317 106 1 1.05415 4.77315 10.2136 0.41 
318 106 1 2.28469 5.98312 9.61392 0.41 
319 107 2 21.5143 29.6755 19.4502 -0.82 
320 107 1 22.1765 28.9916 19.8576 0.41 
321 107 1 22.1238 30.1417 18.7227 0.41 
322 108 2 30.755 27.7148 28.4085 -0.82 
323 108 1 0.725034 27.5594 28.0617 0.41 
324 108 1 30.3757 26.7795 28.3593 0.41 
325 109 2 20.076 21.2479 28.6706 -0.82 
326 109 1 20.3211 20.4732 29.2499 0.41 
327 109 1 20.7322 21.4305 27.9184 0.41 
328 110 2 23.4676 7.92497 0.537501 -0.82 
329 110 1 23.5916 8.90815 0.442801 0.41 
330 110 1 22.4579 7.84224 0.678402 0.41 
331 111 2 25.6948 2.28274 10.828 -0.82 
332 111 1 25.7772 1.37741 10.3725 0.41 
333 111 1 26.5606 2.7741 10.4482 0.41 
334 112 2 25.5816 17.0763 25.8654 -0.82 
335 112 1 25.9923 18.038 25.8071 0.41 
336 112 1 25.1817 16.8103 24.98 0.41 
337 113 2 14.5832 17.7939 7.87495 -0.82 
338 113 1 13.7621 17.7018 7.2993 0.41 
339 113 1 14.7259 18.788 7.8691 0.41 
340 114 2 11.1757 15.0655 5.55785 -0.82 
341 114 1 11.1859 15.5327 4.65464 0.41 
342 114 1 11.9288 15.3238 6.21535 0.41 
343 115 2 8.07218 10.246 14.812 -0.82 
344 115 1 7.47695 9.48244 15.1792 0.41 
345 115 1 8.91299 9.78338 14.3852 0.41 
346 116 2 2.14524 30.2187 7.53728 -0.82 
347 116 1 2.6525 30.3518 8.43477 0.41 
348 116 1 2.64511 29.3999 7.04707 0.41 
349 117 2 15.6665 28.1614 14.0742 -0.82 
350 117 1 15.2643 29.1202 13.9656 0.41 
351 117 1 15.7394 27.8981 15.0577 0.41 
352 118 2 29.9071 18.9255 8.98859 -0.82 
353 118 1 29.3066 19.2386 9.7868 0.41 
354 118 1 29.905 19.7078 8.29453 0.41 
355 119 2 13.1623 23.4169 8.02548 -0.82 
356 119 1 13.0511 24.2153 7.45057 0.41 
357 119 1 12.605 22.5948 7.64973 0.41 
358 120 2 27.3835 8.7905 30.0426 -0.82 
359 120 1 27.7346 8.73687 0.0219538 0.41 
360 120 1 26.9207 9.71848 30.0381 0.41 
361 121 2 17.9753 17.5613 25.6776 -0.82 
362 121 1 17.9943 16.4929 25.6882 0.41 
363 121 1 18.5987 17.8442 24.8821 0.41 
364 122 2 29.0056 13.7916 26.7111 -0.82 
365 122 1 29.1257 13.5947 25.7153 0.41 
366 122 1 29.8638 13.585 27.1684 0.41 
367 123 2 17.6025 18.1998 15.3374 -0.82 
368 123 1 16.9678 18.9114 14.9642 0.41 
369 123 1 18.5664 18.4708 15.0329 0.41 
370 124 2 28.936 0.1203 24.325 -0.82 
371 124 1 29.0222 30.5261 23.4404 0.41 
372 124 1 29.9397 0.336814 24.543 0.41 
373 125 2 27.0687 22.4538 1.05574 -0.82 
374 125 1 28.012 22.5678 1.44016 0.41 
375 125 1 27.3029 22.1644 0.0954075 0.41 
376 126 2 23.9888 4.01315 19.3692 -0.82 
377 126 1 23.8834 3.00393 19.4487 0.41 
378 126 1 23.1591 4.54152 19.3308 0.41 
379 127 2 25.5746 19.642 22.4089 -0.82 
380 127 1 26.0137 19.663 23.3196 0.41 
381 127 1 25.1448 18.6931 22.4273 0.41 
382 128 2 1.15596 23.0108 27.8746 -0.82 
383 128 1 1.75202 22.4633 27.2816 0.41 
384 128 1 0.909406 23.922 27.4763 0.41 
385 129 2 0.884536 19.026 26.8533 -0.82 
386 129 1 0.597883 18.2195 27.4267 0.41 
387 129 1 0.318004 18.912 25.9828 0.41 
388 130 2 19.7404 15.4171 2.80188 -0.82 
389 130 1 19.4948 16.3739 3.03833 0.41 
390 130 1 20.1296 15.4425 1.86533 0.41 
391 131 2 14.3962 13.4306 12.9252 -0.82 
392 131 1 13.9644 13.5979 13.8558 0.41 
393 131 1 14.5397 12.4094 12.7741 0.41 
394 132 2 5.61544 23.8509 29.009 -0.82 
395 132 1 5.22942 24.6994 28.5007 0.41 
396 132 1 6.58546 24.1069 29.1943 0.41 
397 133 2 18.1314 22.35 30.6496 -0.82 
398 133 1 18.8123 22.1297 29.9476 0.41 
399 133 1 17.5361 23.1404 30.2929 0.41 
400 134 2 2.70592 20.84 11.2865 -0.82 
401 134 1 3.50132 20.6438 11.9406 0.41 
402 134 1 1.91741 20.7668 11.963 0.41 
403 135 2 9.02722 1.03063 17.25 -0.82 
404 135 1 9.61045 1.70054 17.7222 0.41 
405 135 1 8.53591 1.52878 16.491 0.41 
406 136 2 9.19295 23.6058 10.4692 -0.82 
407 136 1 8.59819 23.7895 11.2942 0.41 
408 136 1 9.0125 22.6988 9.95733 0.41 
409 137 2 16.0532 21.369 2.18091 -0.82 
410 137 1 16.1468 20.3943 1.90311 0.41 
411 137 1 17.0131 21.5749 2.63484 0.41 
412 138 2 20.1351 19.657 10.0477 -0.82 
413 138 1 19.8286 19.8546 9.10531 0.41 
414 138 1 19.8894 20.489 10.6166 0.41 
415 139 2 22.5052 13.5852 27.3655 -0.82 
416 139 1 23.0351 13.7431 28.2513 0.41 
417 139 1 23.1788 13.5453 26.52 0.41 
418 140 2 14.6801 2.10907 20.4054 -0.82 
419 140 1 14.0039 1.41559 20.5097 0.41 
420 140 1 15.566 1.86099 20.9658 0.41 
421 141 2 1.06833 12.121 14.441 -0.82 
422 141 1 0.671823 11.2208 14.3648 0.41 
423 141 1 0.705198 12.6775 13.6156 0.41 
424 142 2 16.1658 27.3694 16.5861 -0.82 
425 142 1 16.2851 26.394 16.9549 0.41 
426 142 1 15.8028 27.9205 17.3895 0.41 
427 143 2 20.0802 9.16493 4.25996 -0.82 
428 143 1 19.5385 8.69865 3.53762 0.41 
429 143 1 19.8407 10.2032 4.35027 0.41 
430 144 2 23.3143 24.5567 14.544 -0.82 
431 144 1 23.0139 25.0804 13.7222 0.41 
432 144 1 23.3082 25.155 15.3973 0.41 
433 145 2 3.47985 11.5441 15.9672 -0.82 
434 145 1 3.60189 10.5121 15.8961 0.41 
435 145 1 2.58474 11.7316 15.616 0.41 
436 146 2 23.5566 20.4783 28.3805 -0.82 
437 146 1 24.2381 21.1622 28.7738 0.41 
438 146 1 22.9177 21.075 27.8505 0.41 
439 147 2 2.8334 3.13417 24.8071 -0.82 
440 147 1 2.18483 2.92177 25.5131 0.41 
441 147 1 3.25668 4.02286 24.9708 0.41 
442 148 2 30.1845 11.3572 28.9086 -0.82 
443 148 1 30.4232 10.7004 28.206 0.41 
444 148 1 30.725 12.2204 28.8289 0.41 
445 149 2 4.70136 3.70172 3.52058 -0.82 
446 149 1 4.72991 4.17731 2.64272 0.41 
447 149 1 5.19858 4.22568 4.28682 0.41 
448 150 2 26.2233 8.05666 15.4713 -0.82 
449 150 1 26.4161 9.11537 15.3116 0.41 
450 150 1 25.3351 7.76798 14.986 0.41 
451 151 2 18.5607 6.65728 18.7662 -0.82 
452 151 1 18.4665 7.36212 19.4571 0.41 
453 151 1 18.8559 7.18736 17.9071 0.41 
454 152 2 7.58363 14.0097 27.7011 -0.82 
455 152 1 8.3524 14.7214 27.6682 0.41 
456 152 1 7.88437 13.2263 28.3198 0.41 
457 153 2 17.4978 23.255 9.38182 -0.82 
458 153 1 16.9393 22.5747 8.8073 0.41 
459 153 1 16.9113 23.6614 10.0934 0.41 
460 154 2 30.4978 19.862 4.19556 -0.82 
461 154 1 30.4021 20.8356 4.47756 0.41 
462 154 1 0.409486 19.3535 4.43033 0.41 
463 155 2 23.9339 7.1158 14.5809 -0.82 
464 155 1 23.0089 6.99954 14.1655 0.41 
465 155 1 23.6118 6.93528 15.5763 0.41 
466 156 2 23.0146 27.5015 13.2158 -0.82 
467 156 1 22.6508 26.7058 12.7139 0.41 
468 156 1 22.3509 27.6312 14.007 0.41 
469 157 2 5.15861 10.6615 13.122 -0.82 
470 157 1 5.82934 11.4111 13.3359 0.41 
471 157 1 4.94873 10.1986 14.0141 0.41 
472 158 2 26.124 25.4917 23.9625 -0.82 
473 158 1 25.7998 25.5482 23.0029 0.41 
474 158 1 25.717 26.252 24.5196 0.41 
475 159 2 6.44251 30.6445 26.7556 -0.82 
476 159 1 5.91335 30.2217 27.5122 0.41 
477 159 1 6.82597 0.524664 26.9673 0.41 
478 160 2 29.2825 20.1535 22.9546 -0.82 
479 160 1 28.6187 20.727 22.4757 0.41 
480 160 1 30.1728 20.6407 23.1189 0.41 
481 161 2 8.45355 4.98264 13.8169 -0.82 
482 161 1 8.05905 4.06168 13.7536 0.41 
483 161 1 8.18239 5.49535 12.9801 0.41 
484 162 2 2.26703 5.15703 4.35478 -0.82 
485 162 1 3.27122 4.8921 4.33771 0.41 
486 162 1 1.81133 4.76752 3.52756 0.41 
487 163 2 16.4755 24.8137 11.472 -0.82 
488 163 1 16.852 25.7672 11.4833 0.41 
489 163 1 16.7162 24.5362 12.4722 0.41 
490 164 2 19.605 13.4313 12.6021 -0.82 
491 164 1 19.1962 14.0948 13.2674 0.41 
492 164 1 19.1687 13.632 11.6723 0.41 
493 165 2 15.5918 30.2314 9.96657 -0.82 
494 165 1 16.1807 29.8851 9.1436 0.41 
495 165 1 14.629 29.7443 9.88921 0.41 
496 166 2 15.6559 15.7913 13.1125 -0.82 
497 166 1 15.7316 16.3391 12.2201 0.41 
498 166 1 15.2945 14.8186 13.0087 0.41 
499 167 2 30.0162 8.38683 15.8818 -0.82 
500 167 1 29.2943 7.64923 15.9676 0.41 
501 167 1 30.5249 8.59256 16.7459 0.41 
502 168 2 25.4981 28.1203 1.30776 -0.82 
503 168 1 25.5991 28.4711 2.29714 0.41 
504 168 1 25.8802 28.8203 0.634419 0.41 
505 169 2 7.44945 11.7191 10.0396 -0.82 
506 169 1 8.27214 11.5978 10.6202 0.41 
507 169 1 7.41674 12.7058 9.67912 0.41 
508 170 2 27.9537 20.9533 29.871 -0.82 
509 170 1 27.9458 19.9835 30.3088 0.41 
510 170 1 28.8274 20.9365 29.3493 0.41 
511 171 2 2.45194 17.2518 16.1548 -0.82 
512 171 1 3.0811 16.4693 15.8889 0.41 
513 171 1 3.07649 18.0398 16.3345 0.41 
514 172 2 2.05483 31.0093 23.2101 -0.82 
515 172 1 2.0575 0.865228 22.623 0.41 
516 172 1 1.52369 31.1029 24.1139 0.41 
517 173 2 27.3522 22.0791 16.9945 -0.82 
518 173 1 28.0345 22.6715 17.3802 0.41 
519 173 1 26.848 22.5319 16.2007 0.41 
520 174 2 14.3503 21.9021 -0.0827898 -0.82 
521 174 1 15.0462 21.8845 0.688854 0.41 
522 174 1 14.0821 20.9152 30.7841 0.41 
523 175 2 7.9373 17.4622 25.9932 -0.82 
524 175 1 8.44584 18.357 25.9667 0.41 
525 175 1 8.55996 16.7063 25.8589 0.41 
526 176 2 14.6303 24.3916 22.1964 -0.82 
527 176 1 13.8053 24.9295 22.3397 0.41 
528 176 1 15.0252 24.0884 23.0731 0.41 
529 177 2 20.5167 6.48055 29.412 -0.82 
530 177 1 20.131 5.91125 28.5945 0.41 
531 177 1 21.3111 5.92796 29.7335 0.41 
532 178 2 26.7245 29.9165 20.9362 -0.82 
533 178 1 26.723 30.5634 20.1685 0.41 
534 178 1 26.7009 28.9323 20.6771 0.41 
535 179 2 22.9192 2.81424 3.06849 -0.82 
536 179 1 23.8323 2.53085 2.71365 0.41 
537 179 1 22.4762 3.4816 2.43201 0.41 
538 180 2 26.3125 19.6789 16.0058 -0.82 
539 180 1 25.7963 19.9318 15.2241 0.41 
540 180 1 26.7074 20.4871 16.531 0.41 
541 181 2 18.9202 25.1922 28.647 -0.82 
542 181 1 18.8542 26.1918 28.5468 0.41 
543 181 1 19.858 24.9886 28.3572 0.41 
544 182 2 4.82066 7.64576 1.61124 -0.82 
545 182 1 5.05515 7.46002 0.638799 0.41 
546 182 1 3.85287 7.88217 1.8091 0.41 
547 183 2 4.56387 25.0053 4.37785 -0.82 
548 183 1 4.50251 25.2103 3.35777 0.41 
549 183 1 5.55771 24.8572 4.55417 0.41 
550 184 2 16.285 22.1973 7.29554 -0.82 
551 184 1 16.2602 23.0922 6.76102 0.41 
552 184 1 16.6433 21.4504 6.69947 0.41 
553 185 2 19.4501 28.0603 18.3395 -0.82 
554 185 1 19.8112 28.8675 18.8635 0.41 
555 185 1 18.7755 28.5052 17.6978 0.41 
556 186 2 3.77591 7.35113 9.86582 -0.82 
557 186 1 3.59894 7.59592 10.8392 0.41 
558 186 1 4.25001 8.20395 9.41786 0.41 
559 187 2 24.9034 3.17281 28.4837 -0.82 
560 187 1 24.9544 3.34858 29.4779 0.41 
561 187 1 25.7854 3.46392 28.0462 0.41 
562 188 2 26.0053 12.0996 19.379 -0.82 
563 188 1 26.5774 12.9415 19.0777 0.41 
564 188 1 25.6472 11.8094 18.4325 0.41 
565 189 2 8.39166 19.5381 29.3259 -0.82 
566 189 1 8.90082 20.4714 29.1249 0.41 
567 189 1 8.66578 19.0307 28.4855 0.41 
568 190 2 13.3787 17.3928 25.695 -0.82 
569 190 1 13.612 17.0795 24.754 0.41 
570 190 1 13.7893 18.2992 25.8441 0.41 
571 191 2 25.5855 10.7912 12.2864 -0.82 
572 191 1 25.6482 11.203 11.3367 0.41 
573 191 1 24.7343 10.2134 12.2551 0.41 
574 192 2 14.5421 5.85313 19.0668 -0.82 
575 192 1 13.6909 6.39808 18.8766 0.41 
576 192 1 15.4054 6.18269 18.5592 0.41 
577 193 2 8.35611 20.9992 10.3768 -0.82 
578 193 1 7.32209 21.1616 10.597 0.41 
579 193 1 8.94471 20.9389 11.1919 0.41 
580 194 2 23.7196 19.3141 25.3856 -0.82 
581 194 1 24.6647 19.7207 25.4399 0.41 
582 194 1 23.2721 19.863 24.7064 0.41 
583 195 2 22.0469 10.8363 20.4152 -0.82 
584 195 1 22.621 11.7173 20.318 0.41 
585 195 1 22.2941 10.5252 21.3421 0.41 
586 196 2 8.78585 10.6371 3.1274 -0.82 
587 196 1 8.31249 11.0872 2.36004 0.41 
588 196 1 8.26479 10.9747 3.94209 0.41 
589 197 2 8.01161 2.98051 3.69769 -0.82 
590 197 1 7.74726 3.76035 3.13488 0.41 
591 197 1 8.03853 3.38835 4.66917 0.41 
592 198 2 4.65627 26.3548 15.6111 -0.82 
593 198 1 5.51818 26.6366 15.0923 0.41 
594 198 1 3.85049 26.6227 15.0497 0.41 
595 199 2 17.9359 13.2668 23.6856 -0.82 
596 199 1 17.0556 13.2024 24.208 0.41 
597 199 1 18.0856 12.4591 22.9983 0.41 
598 200 2 6.58954 15.7105 9.80564 -0.82 
599 200 1 7.22914 15.8652 9.02324 0.41 
600 200 1 5.64077 15.3669 9.52483 0.41 
601 201 2 24.6995 23.6082 0.403968 -0.82 
602 201 1 24.9752 24.1987 30.6203 0.41 
603 201 1 25.5019 23.1188 0.794384 0.41 
604 202 2 2.49859 22.5197 2.04945 -0.82 
605 202 1 1.74059 21.9341 1.67716 0.41 
606 202 1 3.23735 22.6988 1.39842 0.41 
607 203 2 12.5854 9.15423 1.95882 -0.82 
608 203 1 13.1339 8.41006 2.43553 0.41 
609 203 1 12.1119 9.79776 2.58463 0.41 
610 204 2 21.5141 26.6407 2.5762 -0.82 
611 204 1 22.0976 27.44 2.83285 0.41 
612 204 1 22.144 25.8392 2.44976 0.41 
613 205 2 21.6499 10.9952 25.9779 -0.82 
614 205 1 20.7209 10.8933 26.2933 0.41 
615 205 1 22.181 11.7371 26.4288 0.41 
616 206 2 27.07 16.9702 5.26225 -0.82 
617 206 1 27.3213 17.9903 5.18794 0.41 
618 206 1 27.497 16.505 4.46433 0.41 
619 207 2 29.2545 10.0271 8.14782 -0.82 
620 207 1 29.2755 10.1569 7.16182 0.41 
621 207 1 30.1863 10.125 8.50503 0.41 
622 208 2 8.89185 18.2016 15.8244 -0.82 
623 208 1 8.31772 18.5302 15.0491 0.41 
624 208 1 8.79192 18.9563 16.5685 0.41 
625 209 2 5.74158 12.6293 22.6892 -0.82 
626 209 1 6.65164 13.1491 22.6539 0.41 
627 209 1 5.39437 12.495 21.7144 0.41 
628 210 2 7.14219 19.1775 13.9787 -0.82 
629 210 1 6.44084 18.8016 13.3763 0.41 
630 210 1 7.00148 20.1839 14.0168 0.41 
631 211 2 4.37967 15.6207 30.8879 -0.82 
632 211 1 3.71079 16.0401 0.570093 0.41 
633 211 1 5.05534 16.3848 30.7267 0.41 
634 212 2 20.5345 14.2147 5.19033 -0.82 
635 212 1 21.1498 14.7902 5.71021 0.41 
636 212 1 20.3013 14.6808 4.27432 0.41 
637 213 2 12.4677 3.93166 5.17726 -0.82 
638 213 1 12.0865 4.7324 5.69626 0.41 
639 213 1 13.0203 3.47167 5.9344 0.41 
640 214 2 4.57138 22.3957 16.0478 -0.82 
641 214 1 5.14722 23.0885 16.5171 0.41 
642 214 1 3.58885 22.6637 16.1608 0.41 
643 215 2 26.9569 25.9932 14.1086 -0.82 
644 215 1 26.6975 25.1191 14.5816 0.41 
645 215 1 27.4246 26.6349 14.7191 0.41 
646 216 2 30.6657 12.7111 6.02098 -0.82 
647 216 1 30.2729 13.0846 6.90797 0.41 
648 216 1 0.67134 12.7758 6.0375 0.41 
649 217 2 5.93897 3.30134 11.4379 -0.82 
650 217 1 6.42349 2.80196 12.2327 0.41 
651 217 1 5.83561 2.80418 10.5521 0.41 
652 218 2 0.0197491 9.0875 18.3528 -0.82 
653 218 1 30.701 9.06003 19.3372 0.41 
654 218 1 0.954029 8.63762 18.3159 0.41 
655 219 2 9.71178 15.3659 25.8708 -0.82 
656 219 1 9.61737 14.3836 25.6023 0.41 
657 219 1 9.95321 15.4182 26.8653 0.41 
658 220 2 28.8742 12.9097 1.52731 -0.82 
659 220 1 29.4008 12.1243 1.16626 0.41 
660 220 1 27.8929 12.5822 1.51134 0.41 
661 221 2 22.8288 12.7912 16.7854 -0.82 
662 221 1 23.2644 11.8948 17.0469 0.41 
663 221 1 23.5269 13.3739 16.3526 0.41 
664 222 2 18.0512 29.4109 16.1138 -0.82 
665 222 1 17.3757 30.1618 16.0989 0.41 
666 222 1 17.4817 28.5824 16.1163 0.41 
667 223 2 11.5694 21.424 7.40022 -0.82 
668 223 1 11.1785 20.494 7.44165 0.41 
669 223 1 10.7915 22.0559 7.26219 0.41 
670 224 2 14.9893 2.29382 6.78536 -0.82 
671 224 1 14.2884 1.55674 6.77614 0.41 
672 224 1 15.136 2.43483 5.7884 0.41 
673 225 2 27.83 5.03962 1.32889 -0.82 
674 225 1 27.2678 4.91533 2.19345 0.41 
675 225 1 28.6788 5.55753 1.69476 0.41 
676 226 2 13.6829 24.0549 10.5759 -0.82 
677 226 1 13.5139 23.63 9.61217 0.41 
678 226 1 14.6862 23.8714 10.6791 0.41 
679 227 2 31.0526 10.492 22.3723 -0.82 
680 227 1 0.5529 10.2673 23.2824 0.41 
681 227 1 0.601 11.3392 21.9561 0.41 
682 228 2 11.7884 27.6028 30.0068 -0.82 
683 228 1 11.1823 27.6057 29.1818 0.41 
684 228 1 12.6123 27.1102 29.796 0.41 
685 229 2 5.18455 16.884 21.899 -0.82 
686 229 1 5.11095 16.7917 22.9301 0.41 
687 229 1 5.61351 17.7418 21.5871 0.41 
688 230 2 15.5903 17.1658 10.2839 -0.82 
689 230 1 15.0073 17.3579 9.44715 0.41 
690 230 1 16.215 17.987 10.5681 0.41 
691 231 2 29.2561 10.6656 5.43833 -0.82 
692 231 1 28.4649 11.0029 4.86891 0.41 
693 231 1 29.8945 11.504 5.60958 0.41 
694 232 2 7.0042 4.67967 24.4223 -0.82 
695 232 1 7.53176 3.80825 24.2784 0.41 
696 232 1 6.12876 4.66936 23.8827 0.41 
697 233 2 8.70662 23.7565 14.9878 -0.82 
698 233 1 8.80188 24.593 15.535 0.41 
699 233 1 8.3945 23.9874 14.0593 0.41 
700 234 2 25.5035 4.80353 21.5772 -0.82 
701 234 1 24.956 4.32663 20.8919 0.41 
702 234 1 25.1743 5.78042 21.6852 0.41 
703 235 2 2.12897 6.77359 26.303 -0.82 
704 235 1 2.87822 7.44828 26.5964 0.41 
705 235 1 1.35343 6.80222 26.976 0.41 
706 236 2 16.0959 0.41034 15.7741 -0.82 
707 236 1 16.6319 0.8646 15.0568 0.41 
708 236 1 15.5725 1.15825 16.2901 0.41 
709 237 2 22.9856 11.0688 6.28902 -0.82 
710 237 1 23.8617 10.7825 5.82875 0.41 
711 237 1 22.2679 10.7778 5.65674 0.41 
712 238 2 21.0129 30.977 11.6931 -0.82 
713 238 1 20.1156 30.3982 11.6853 0.41 
714 238 1 21.7194 30.2597 11.3961 0.41 
715 239 2 7.04847 12.1098 1.16357 -0.82 
716 239 1 6.39447 11.5477 0.56383 0.41 
717 239 1 6.64302 12.6306 1.98071 0.41 
718 240 2 12.626 18.1071 12.037 -0.82 
719 240 1 12.0096 18.5708 11.3936 0.41 
720 240 1 12.2164 18.0893 12.9607 0.41 
721 241 2 9.44528 0.166676 22.0183 -0.82 
722 241 1 9.98054 30.7918 22.8312 0.41 
723 241 1 8.54933 0.587142 22.2769 0.41 
724 242 2 15.3465 19.9411 13.907 -0.82 
725 242 1 14.9058 19.048 14.1381 0.41 
726 242 1 14.7039 20.6183 14.328 0.41 
727 243 2 26.1285 30.2121 24.8917 -0.82 
728 243 1 26.0082 31.011 25.4971 0.41 
729 243 1 26.8967 30.4572 24.3165 0.41 
730 244 2 24.52 30.921 14.3941 -0.82 
731 244 1 25.0399 30.0982 14.131 0.41 
732 244 1 23.5072 -0.134565 14.1651 0.41 
733 245 2 -0.0345033 9.60384 13.7423 -0.82 
734 245 1 30.2424 9.73405 13.0119 0.41 
735 245 1 30.6568 9.1466 14.5682 0.41 
736 246 2 13.8633 14.9887 10.6853 -0.82 
737 246 1 13.7257 14.5521 11.6604 0.41 
738 246 1 13.9771 16.0149 10.7866 0.41 
739 247 2 21.9211 11.0695 10.3203 -0.82 
740 247 1 21.6955 11.968 9.74434 0.41 
741 247 1 22.5732 10.5905 9.68111 0.41 
742 248 2 0.241732 14.9539 17.4625 -0.82 
743 248 1 0.0368926 15.9322 17.5848 0.41 
744 248 1 30.8374 14.6058 16.5567 0.41 
745 249 2 12.2347 12.2966 20.0589 -0.82 
746 249 1 11.9469 11.306 19.9682 0.41 
747 249 1 11.4972 12.863 19.6307 0.41 
748 250 2 16.2085 0.716293 11.9454 -0.82 
749 250 1 15.7674 0.168395 11.1298 0.41 
750 250 1 15.825 0.324441 12.7842 0.41 
751 251 2 4.62674 24.6205 12.3832 -0.82 
752 251 1 4.65125 25.6505 12.3259 0.41 
753 251 1 3.81449 24.4206 12.9924 0.41 