ITEM: TIMESTEP
350500
ITEM: NUMBER OF ATOMS
3000
ITEM: BOX BOUNDS pp pp pp
0.0000000000000000e+00 3.1000000000000000e+01
0.0000000000000000e+00 3.1000000000000000e+01
0.0000000000000000e+00 3.1000000000000000e+01
ITEM: ATOMS id mol type x y z q 
1 1 2 17.0667 29.4828 7.42314 -0.82 
2 1 1 17.963 29.1068 7.05539 0.41 
3 1 1 16.9841 30.4699 7.1827 0.41 
4 2 2 24.9948 6.28404 11.5052 -0.82 
5 2 1 24.5684 6.34117 12.4209 0.41 
6 2 1 24.2297 6.59678 10.8269 0.41 
7 3 2 3.92307 11.3245 3.5268 -0.82 
8 3 1 3.28946 10.5879 3.17453 0.41 
9 3 1 4.13169 11.8732 2.67057 0.41 
10 4 2 12.1938 0.601536 21.6885 -0.82 
11 4 1 11.2865 0.375871 22.1509 0.41 
12 4 1 12.8691 -0.157792 21.8242 0.41 
13 5 2 21.2074 30.7182 6.07972 -0.82 
14 5 1 21.8108 29.9284 6.21057 0.41 
15 5 1 21.1769 0.289293 6.89919 0.41 
16 6 2 14.8784 28.5197 30.2906 -0.82 
17 6 1 14.914 28.6036 0.312878 0.41 
18 6 1 14.2489 27.6921 30.2525 0.41 
19 7 2 11.2505 12.6336 29.4677 -0.82 
20 7 1 10.3708 12.5132 29.97 0.41 
21 7 1 11.5025 13.5919 29.3318 0.41 
22 8 2 26.2999 24.5008 26.7814 -0.82 
23 8 1 26.2915 24.8698 25.8175 0.41 
24 8 1 27.1811 24.9442 27.2459 0.41 
25 9 2 4.88928 9.66549 17.8388 -0.82 
26 9 1 4.1447 9.1539 18.318 0.41 
27 9 1 5.1924 10.3848 18.4875 0.41 
28 10 2 30.0658 9.51079 26.3378 -0.82 
29 10 1 29.5972 9.35591 27.2472 0.41 
30 10 1 30.1344 8.61307 25.7961 0.41 
31 11 2 2.85062 13.9798 29.1147 -0.82 
32 11 1 2.75728 14.6069 29.9473 0.41 
33 11 1 3.78456 13.984 28.705 0.41 
34 12 2 15.4811 6.91247 17.5045 -0.82 
35 12 1 16.4956 6.864 17.8041 0.41 
36 12 1 15.36 6.25792 16.7356 0.41 
37 13 2 12.8591 27.2004 12.7527 -0.82 
38 13 1 13.6169 27.5998 13.3401 0.41 
39 13 1 12.8941 27.4246 11.7406 0.41 
40 14 2 13.1148 17.0297 1.5278 -0.82 
41 14 1 12.9748 17.7345 0.791693 0.41 
42 14 1 12.2793 17.0512 2.07605 0.41 
43 15 2 26.9985 18.5446 12.3388 -0.82 
44 15 1 26.1443 19.0003 12.7019 0.41 
45 15 1 27.1476 17.7627 12.9587 0.41 
46 16 2 9.97258 19.5857 25.5341 -0.82 
47 16 1 10.5854 19.3632 26.3667 0.41 
48 16 1 9.38642 20.3602 25.7736 0.41 
49 17 2 19.3412 22.2485 17.727 -0.82 
50 17 1 19.7454 21.6078 17.012 0.41 
51 17 1 19.1459 23.1879 17.4349 0.41 
52 18 2 29.4143 7.76946 13.1603 -0.82 
53 18 1 28.946 7.6657 14.0978 0.41 
54 18 1 30.0335 6.96634 13.014 0.41 
55 19 2 8.17781 20.7678 17.6645 -0.82 
56 19 1 8.77344 21.4912 18.123 0.41 
57 19 1 7.4554 20.3362 18.2895 0.41 
58 20 2 24.2784 21.1341 19.6898 -0.82 
59 20 1 23.8264 21.221 20.641 0.41 
60 20 1 23.5548 20.7999 18.9911 0.41 
61 21 2 10.3861 22.371 19.2005 -0.82 
62 21 1 10.2919 21.4497 19.6544 0.41 
63 21 1 10.9818 22.9015 19.8478 0.41 
64 22 2 23.9631 21.0124 7.89829 -0.82 
65 22 1 23.281 20.2081 7.82114 0.41 
66 22 1 24.6991 20.6298 8.53023 0.41 
67 23 2 4.15813 14.9544 9.14401 -0.82 
68 23 1 4.53881 14.3805 9.93678 0.41 
69 23 1 3.16692 14.9791 9.26445 0.41 
70 24 2 6.27393 2.74169 22.1427 -0.82 
71 24 1 5.84413 2.5756 21.2026 0.41 
72 24 1 6.87976 2.03937 22.4736 0.41 
73 25 2 28.6439 9.01034 28.636 -0.82 
74 25 1 27.9666 8.32625 28.2831 0.41 
75 25 1 28.4503 9.1236 29.6528 0.41 
76 26 2 25.8974 6.96643 8.03751 -0.82 
77 26 1 25.3939 6.31251 7.54709 0.41 
78 26 1 25.3519 6.9147 8.85903 0.41 
79 27 2 10.6253 17.4751 18.1129 -0.82 
80 27 1 11.4811 17.9488 18.0641 0.41 
81 27 1 9.82966 17.8137 17.6497 0.41 
82 28 2 10.3152 6.26679 20.3146 -0.82 
83 28 1 9.65744 5.50954 20.5484 0.41 
84 28 1 10.5051 6.69371 21.2364 0.41 
85 29 2 29.5835 27.7027 14.762 -0.82 
86 29 1 29.7187 28.0211 15.7657 0.41 
87 29 1 30.1007 26.8252 14.7768 0.41 
88 30 2 18.3471 25.1983 21.8024 -0.82 
89 30 1 18.792 25.8706 21.1166 0.41 
90 30 1 17.6948 24.6764 21.251 0.41 
91 31 2 0.442695 27.7707 17.0593 -0.82 
92 31 1 0.0237941 28.5787 17.4851 0.41 
93 31 1 1.44166 27.9864 16.9195 0.41 
94 32 2 15.1799 5.01579 21.2926 -0.82 
95 32 1 14.6128 5.14718 20.4668 0.41 
96 32 1 15.2912 3.93815 21.423 0.41 
97 33 2 13.1053 21.0109 22.7569 -0.82 
98 33 1 12.4079 20.2636 22.8795 0.41 
99 33 1 13.0963 21.2892 21.7452 0.41 
100 34 2 4.62617 13.7704 24.1739 -0.82 
101 34 1 5.41893 13.4225 23.5449 0.41 
102 34 1 4.69444 14.7668 24.1434 0.41 
103 35 2 25.5623 26.6984 9.18657 -0.82 
104 35 1 25.2031 27.6346 9.32658 0.41 
105 35 1 25.7669 26.396 10.17 0.41 
106 36 2 8.25271 4.6998 30.8085 -0.82 
107 36 1 8.04851 4.61839 0.824069 0.41 
108 36 1 8.05662 5.69664 30.6419 0.41 
109 37 2 11.377 28.994 23.7273 -0.82 
110 37 1 11.5577 29.901 24.2013 0.41 
111 37 1 12.3046 28.5928 23.5932 0.41 
112 38 2 13.1434 6.67986 2.69795 -0.82 
113 38 1 12.1645 6.31982 2.7943 0.41 
114 38 1 13.5951 6.28244 3.54881 0.41 
115 39 2 3.60025 17.0277 2.1882 -0.82 
116 39 1 3.96186 17.708 2.854 0.41 
117 39 1 2.59344 17.1055 2.23634 0.41 
118 40 2 8.73792 0.88996 29.6231 -0.82 
119 40 1 9.67585 0.743741 29.9773 0.41 
120 40 1 8.13564 31.0954 29.4865 0.41 
121 41 2 7.49325 12.2151 13.414 -0.82 
122 41 1 7.83176 13.0886 12.9872 0.41 
123 41 1 8.2695 11.5831 13.4441 0.41 
124 42 2 26.9486 20.5605 3.3005 -0.82 
125 42 1 26.3865 21.245 3.83402 0.41 
126 42 1 27.3715 21.1981 2.6418 0.41 
127 43 2 28.4511 25.7064 28.3257 -0.82 
128 43 1 27.9473 25.5763 29.1987 0.41 
129 43 1 28.9651 24.8117 28.1959 0.41 
130 44 2 8.49335 4.39831 5.8162 -0.82 
131 44 1 9.36142 4.75404 6.2509 0.41 
132 44 1 7.59101 4.62498 6.3031 0.41 
133 45 2 22.4419 13.6044 23.1537 -0.82 
134 45 1 22.7634 13.676 22.2128 0.41 
135 45 1 21.7315 14.3505 23.236 0.41 
136 46 2 14.2418 20.891 18.1883 -0.82 
137 46 1 13.7872 21.5487 18.8912 0.41 
138 46 1 15.1999 20.8682 18.5114 0.41 
139 47 2 6.24797 4.17542 27.2938 -0.82 
140 47 1 6.87204 4.88419 27.7353 0.41 
141 47 1 5.67614 4.57679 26.502 0.41 
142 48 2 26.4213 8.55419 26.7319 -0.82 
143 48 1 26.7562 9.52773 26.7737 0.41 
144 48 1 26.9466 8.11904 25.9236 0.41 
145 49 2 20.0331 2.63361 25.0694 -0.82 
146 49 1 19.6514 3.18651 24.2842 0.41 
147 49 1 21.0191 2.45157 24.9956 0.41 
148 50 2 25.3218 28.6696 14.4657 -0.82 
149 50 1 24.4688 28.2049 14.0376 0.41 
150 50 1 26.0212 27.8732 14.521 0.41 
151 51 2 21.1274 8.00623 10.8563 -0.82 
152 51 1 21.8741 8.71034 10.9887 0.41 
153 51 1 20.9522 7.5283 11.7311 0.41 
154 52 2 12.8638 23.5787 26.8844 -0.82 
155 52 1 13.3706 23.2251 27.7391 0.41 
156 52 1 13.217 23.1705 26.0365 0.41 
157 53 2 23.38 21.1677 22.3075 -0.82 
158 53 1 24.1457 20.554 22.3649 0.41 
159 53 1 22.6209 20.5833 21.9838 0.41 
160 54 2 27.0221 17.2804 15.4431 -0.82 
161 54 1 26.5861 16.7065 14.6968 0.41 
162 54 1 26.6412 18.2739 15.3697 0.41 
163 55 2 12.3698 1.4995 7.14021 -0.82 
164 55 1 11.97 1.35713 6.24099 0.41 
165 55 1 12.129 0.658895 7.75993 0.41 
166 56 2 16.8423 23.9875 29.895 -0.82 
167 56 1 17.7776 24.1323 29.4876 0.41 
168 56 1 16.6995 24.6763 30.6444 0.41 
169 57 2 10.0525 16.4559 29.0005 -0.82 
170 57 1 9.37912 16.0593 29.5536 0.41 
171 57 1 10.9015 15.8644 29.1411 0.41 
172 58 2 28.1104 12.853 18.8563 -0.82 
173 58 1 27.7243 11.9053 18.8934 0.41 
174 58 1 27.4926 13.4102 18.2082 0.41 
175 59 2 7.41205 10.8949 5.38302 -0.82 
176 59 1 6.56746 10.8007 6.01802 0.41 
177 59 1 8.15606 10.386 5.882 0.41 
178 60 2 0.474557 5.45392 6.02345 -0.82 
179 60 1 0.60259 6.427 6.32552 0.41 
180 60 1 1.03209 5.14307 5.21399 0.41 
181 61 2 26.9024 11.3166 2.18514 -0.82 
182 61 1 26.7757 10.3154 2.41395 0.41 
183 61 1 26.672 11.4662 1.18808 0.41 
184 62 2 10.1708 9.73069 13.4662 -0.82 
185 62 1 9.84088 9.44176 12.4781 0.41 
186 62 1 10.5593 10.72 13.4948 0.41 
187 63 2 16.1718 12.381 10.4056 -0.82 
188 63 1 15.4088 13.0092 10.636 0.41 
189 63 1 15.8124 11.5615 9.95919 0.41 
190 64 2 0.0947217 7.03042 21.702 -0.82 
191 64 1 0.943411 6.75507 22.2537 0.41 
192 64 1 0.120116 6.63494 20.7416 0.41 
193 65 2 29.5798 25.6882 20.3064 -0.82 
194 65 1 29.7 25.0036 21.0615 0.41 
195 65 1 30.0047 25.2939 19.4397 0.41 
196 66 2 -0.342332 13.3116 19.8031 -0.82 
197 66 1 0.311713 13.608 19.0374 0.41 
198 66 1 29.7016 13.0535 19.6066 0.41 
199 67 2 1.34524 28.5665 21.8785 -0.82 
200 67 1 1.13704 29.6031 22.0648 0.41 
201 67 1 2.38361 28.6116 22.0229 0.41 
202 68 2 17.3517 14.986 21.5691 -0.82 
203 68 1 17.0909 14.2617 20.8868 0.41 
204 68 1 16.7626 14.9146 22.4057 0.41 
205 69 2 2.81762 27.2229 29.7889 -0.82 
206 69 1 2.86405 27.828 30.5956 0.41 
207 69 1 1.81677 27.1936 29.4704 0.41 
208 70 2 20.4815 12.6391 1.046 -0.82 
209 70 1 20.8759 12.0655 0.344624 0.41 
210 70 1 20.8806 12.5658 1.92053 0.41 
211 71 2 10.7243 5.692 2.99226 -0.82 
212 71 1 10.1827 4.80323 3.13922 0.41 
213 71 1 10.1029 6.48387 3.24864 0.41 
214 72 2 4.14531 -0.0407507 12.6132 -0.82 
215 72 1 3.62887 0.838669 12.7472 0.41 
216 72 1 4.29904 30.4048 13.4382 0.41 
217 73 2 0.658614 25.9118 26.55 -0.82 
218 73 1 30.9372 25.765 25.829 0.41 
219 73 1 1.46249 26.504 26.1427 0.41 
220 74 2 14.0332 12.4576 21.5662 -0.82 
221 74 1 13.4151 12.3395 20.7504 0.41 
222 74 1 14.6517 11.6287 21.6915 0.41 
223 75 2 22.7272 17.3668 0.775753 -0.82 
224 75 1 22.0578 16.5695 0.60654 0.41 
225 75 1 22.833 17.7373 1.71933 0.41 
226 76 2 17.066 5.34957 10.1993 -0.82 
227 76 1 17.5325 4.93872 9.38057 0.41 
228 76 1 17.0953 4.75904 11.0152 0.41 
229 77 2 2.94257 29.0768 0.728513 -0.82 
230 77 1 2.56112 29.9454 0.250701 0.41 
231 77 1 2.3327 28.9802 1.51355 0.41 
232 78 2 26.1528 9.37513 9.39771 -0.82 
233 78 1 26.9786 9.88444 9.03399 0.41 
234 78 1 26.2204 8.42058 8.95171 0.41 
235 79 2 17.2234 12.4446 16.2365 -0.82 
236 79 1 17.9498 11.7035 16.1846 0.41 
237 79 1 16.4968 12.2855 15.5341 0.41 
238 80 2 17.205 13.6941 6.66595 -0.82 
239 80 1 17.2469 12.7602 7.04361 0.41 
240 80 1 17.2015 13.5419 5.64702 0.41 
241 81 2 17.798 23.958 26.0043 -0.82 
242 81 1 18.078 24.5271 26.7636 0.41 
243 81 1 17.5261 22.9788 26.3154 0.41 
244 82 2 19.77 5.69318 15.3826 -0.82 
245 82 1 19.7461 6.63703 15.7434 0.41 
246 82 1 18.7819 5.39322 15.2293 0.41 
247 83 2 7.49371 1.43465 2.55619 -0.82 
248 83 1 6.69884 1.79475 1.96916 0.41 
249 83 1 8.04027 2.29343 2.75082 0.41 
250 84 2 8.6889 8.78371 11.4648 -0.82 
251 84 1 9.29773 8.74925 10.5889 0.41 
252 84 1 7.67962 8.46163 11.3198 0.41 
253 85 2 10.5608 6.08006 30.2854 -0.82 
254 85 1 11.1584 5.70322 29.5624 0.41 
255 85 1 9.89145 5.31555 30.3732 0.41 
256 86 2 9.78714 13.3234 18.5991 -0.82 
257 86 1 8.82719 13.6794 18.5881 0.41 
258 86 1 9.46671 12.4211 18.3704 0.41 
259 87 2 15.8632 13.7627 18.6013 -0.82 
260 87 1 16.3718 12.9657 18.1892 0.41 
261 87 1 16.0647 14.5752 17.9738 0.41 
262 88 2 8.39156 14.7457 21.2049 -0.82 
263 88 1 8.70222 14.9682 20.296 0.41 
264 88 1 8.90327 15.1982 21.9644 0.41 
265 89 2 20.1112 30.3305 27.1066 -0.82 
266 89 1 20.8963 30.8568 26.6496 0.41 
267 89 1 19.6979 30.9199 27.8434 0.41 
268 90 2 11.8536 7.40721 18.4966 -0.82 
269 90 1 11.32 6.87418 19.2043 0.41 
270 90 1 11.7426 8.41798 18.7414 0.41 
271 91 2 2.11827 8.50149 29.7748 -0.82 
272 91 1 2.06076 9.51312 29.4654 0.41 
273 91 1 3.10786 8.27702 30.0314 0.41 
274 92 2 19.3979 27.1412 20.3664 -0.82 
275 92 1 19.662 27.2116 19.3432 0.41 
276 92 1 19.4719 28.0392 20.8494 0.41 
277 93 2 5.31566 17.7183 5.07612 -0.82 
278 93 1 5.82618 18.0242 4.23089 0.41 
279 93 1 6.04207 17.6748 5.81472 0.41 
280 94 2 19.5295 9.88344 13.7911 -0.82 
281 94 1 20.1731 10.6672 14.0843 0.41 
282 94 1 19.2724 10.0986 12.8119 0.41 
283 95 2 17.9125 2.12733 14.6441 -0.82 
284 95 1 17.6883 2.56726 13.7315 0.41 
285 95 1 18.8771 2.38363 14.8287 0.41 
286 96 2 26.6397 19.7594 20.2692 -0.82 
287 96 1 26.2846 19.6011 21.2691 0.41 
288 96 1 25.8403 20.1998 19.7624 0.41 
289 97 2 28.7039 30.4441 27.3662 -0.82 
290 97 1 28.4547 0.289946 27.9141 0.41 
291 97 1 28.8493 30.7423 26.4202 0.41 
292 98 2 23.9788 0.927415 6.61789 -0.82 
293 98 1 23.1064 1.03606 7.14368 0.41 
294 98 1 24.3782 1.88204 6.72155 0.41 
295 99 2 0.924974 12.3226 10.1477 -0.82 
296 99 1 0.437645 12.6957 11.0315 0.41 
297 99 1 1.089 13.0899 9.48212 0.41 
298 100 2 24.4828 18.0639 17.2771 -0.82 
299 100 1 24.0057 17.6631 16.4375 0.41 
300 100 1 25.2168 18.6635 16.928 0.41 
301 101 2 11.0067 11.6016 27.1036 -0.82 
302 101 1 10.5385 10.6502 26.9549 0.41 
303 101 1 11.1399 11.7893 28.094 0.41 
304 102 2 26.2139 19.7523 25.1267 -0.82 
305 102 1 26.9129 19.1861 25.6387 0.41 
306 102 1 25.8837 20.6085 25.627 0.41 
307 103 2 16.4977 30.5897 24.1787 -0.82 
308 103 1 16.8019 29.6799 23.8449 0.41 
309 103 1 17.1939 0.0011068 24.8307 0.41 
310 104 2 22.5508 20.0739 18.0031 -0.82 
311 104 1 22.2756 19.0835 18.2263 0.41 
312 104 1 21.9257 20.3723 17.2228 0.41 
313 105 2 29.3797 15.9478 20.8558 -0.82 
314 105 1 29.4155 15.1444 20.2477 0.41 
315 105 1 29.0597 16.7888 20.363 0.41 
316 106 2 1.08868 5.35115 9.14424 -0.82 
317 106 1 0.942057 5.0785 8.14933 0.41 
318 106 1 1.96747 5.79829 9.31599 0.41 
319 107 2 22.0359 30.649 19.075 -0.82 
320 107 1 22.451 29.7668 19.4228 0.41 
321 107 1 22.0049 30.6382 18.0848 0.41 
322 108 2 31.0483 27.4321 28.7811 -0.82 
323 108 1 0.36933 26.7771 28.0657 0.41 
324 108 1 30.1029 27.0723 28.9339 0.41 
325 109 2 19.8531 20.4537 28.3877 -0.82 
326 109 1 20.4039 19.7146 28.8436 0.41 
327 109 1 20.5808 20.9975 27.9777 0.41 
328 110 2 23.0481 8.26269 0.710069 -0.82 
329 110 1 23.2467 9.25964 0.911555 0.41 
330 110 1 22.2256 7.91822 1.23452 0.41 
331 111 2 25.7934 2.68102 11.0645 -0.82 
332 111 1 25.8982 1.64071 10.9577 0.41 
333 111 1 26.4016 3.08329 10.3452 0.41 
334 112 2 25.2739 16.2468 26.0901 -0.82 
335 112 1 25.9655 17.0179 25.9729 0.41 
336 112 1 24.6185 16.201 25.3108 0.41 
337 113 2 14.9564 17.6253 8.76178 -0.82 
338 113 1 14.221 17.4354 8.11851 0.41 
339 113 1 15.0337 18.6808 8.8415 0.41 
340 114 2 10.7074 15.6407 6.29286 -0.82 
341 114 1 10.2015 16.3405 5.70382 0.41 
342 114 1 10.6932 15.8447 7.29826 0.41 
343 115 2 8.40192 9.91836 15.343 -0.82 
344 115 1 7.97285 9.00066 15.509 0.41 
345 115 1 9.06859 9.7747 14.5962 0.41 
346 116 2 1.72315 30.4213 7.2179 -0.82 
347 116 1 2.19361 31.0109 7.93842 0.41 
348 116 1 2.4195 29.9834 6.64577 0.41 
349 117 2 15.2323 27.9155 14.0917 -0.82 
350 117 1 15.1988 28.9377 14.139 0.41 
351 117 1 15.8765 27.715 14.8524 0.41 
352 118 2 30.0053 18.4675 8.35793 -0.82 
353 118 1 29.4936 18.8637 9.15488 0.41 
354 118 1 30.2348 19.2682 7.73527 0.41 
355 119 2 13.2974 23.5285 8.50953 -0.82 
356 119 1 13.0285 24.3601 7.93903 0.41 
357 119 1 12.7748 22.7079 8.29828 0.41 
358 120 2 28.0557 9.07927 0.340695 -0.82 
359 120 1 27.8216 8.78249 1.2757 0.41 
360 120 1 27.4113 9.85846 0.00123054 0.41 
361 121 2 17.8713 17.8916 25.8496 -0.82 
362 121 1 18.2241 16.9539 25.4937 0.41 
363 121 1 17.9622 18.52 24.9578 0.41 
364 122 2 29.6583 13.8128 26.6941 -0.82 
365 122 1 29.8601 13.3491 25.8623 0.41 
366 122 1 30.5306 14.1936 27.1027 0.41 
367 123 2 17.5251 18.2892 16.3067 -0.82 
368 123 1 16.7039 18.6713 15.8685 0.41 
369 123 1 18.2443 18.375 15.5229 0.41 
370 124 2 29.1418 0.161136 24.8787 -0.82 
371 124 1 28.7373 30.6062 24.077 0.41 
372 124 1 30.1984 0.239177 24.8955 0.41 
373 125 2 27.8758 22.5076 1.45496 -0.82 
374 125 1 28.8643 22.5868 1.71488 0.41 
375 125 1 27.8001 22.5464 0.402649 0.41 
376 126 2 24.4143 4.29552 20.1482 -0.82 
377 126 1 24.1155 3.27965 20.0109 0.41 
378 126 1 23.5447 4.65479 20.6253 0.41 
379 127 2 25.4618 19.1209 22.5696 -0.82 
380 127 1 25.8985 19.5623 23.4232 0.41 
381 127 1 25.1646 18.1751 22.7711 0.41 
382 128 2 1.44341 23.2149 26.9486 -0.82 
383 128 1 1.76863 22.967 26.0439 0.41 
384 128 1 1.47354 24.2163 26.9408 0.41 
385 129 2 0.885553 18.8836 26.9782 -0.82 
386 129 1 0.868877 17.9008 27.2818 0.41 
387 129 1 0.31026 18.9712 26.1491 0.41 
388 130 2 19.997 15.5007 3.47106 -0.82 
389 130 1 19.5718 16.4128 3.77043 0.41 
390 130 1 20.8304 15.715 2.93427 0.41 
391 131 2 14.188 13.7973 13.4596 -0.82 
392 131 1 13.2915 13.6801 13.8881 0.41 
393 131 1 14.7578 13.0099 13.8379 0.41 
394 132 2 5.00995 23.4992 28.9364 -0.82 
395 132 1 4.70814 24.4188 28.6427 0.41 
396 132 1 6.06495 23.5661 29.1778 0.41 
397 133 2 18.4353 21.6997 30.4603 -0.82 
398 133 1 18.8332 21.1139 29.6996 0.41 
399 133 1 17.6319 22.2771 30.1748 0.41 
400 134 2 2.97936 20.7969 10.6182 -0.82 
401 134 1 3.74165 20.5024 11.2944 0.41 
402 134 1 2.02726 20.7003 11.0023 0.41 
403 135 2 8.33038 0.830671 18.4335 -0.82 
404 135 1 9.14786 1.36976 18.7347 0.41 
405 135 1 7.60264 1.52575 18.2989 0.41 
406 136 2 9.30243 23.7872 10.5854 -0.82 
407 136 1 8.67005 23.9365 11.3745 0.41 
408 136 1 9.25272 22.8217 10.2578 0.41 
409 137 2 16.1291 20.9921 1.97903 -0.82 
410 137 1 16.545 20.0627 1.68228 0.41 
411 137 1 16.8982 21.5341 2.31682 0.41 
412 138 2 20.085 19.3345 10.4745 -0.82 
413 138 1 19.5806 19.1626 9.54949 0.41 
414 138 1 20.0038 20.2789 10.8224 0.41 
415 139 2 22.9283 14.2975 26.678 -0.82 
416 139 1 23.4444 14.5838 27.5516 0.41 
417 139 1 23.6414 14.0595 25.947 0.41 
418 140 2 14.381 2.23752 20.8428 -0.82 
419 140 1 13.6049 1.59392 21.0377 0.41 
420 140 1 15.151 1.9996 21.4553 0.41 
421 141 2 1.4286 11.8767 15.2119 -0.82 
422 141 1 0.804481 11.2623 14.5247 0.41 
423 141 1 0.85326 12.4878 15.7845 0.41 
424 142 2 16.5982 27.8324 16.4496 -0.82 
425 142 1 16.4077 26.9063 16.8055 0.41 
426 142 1 15.9293 28.494 16.9343 0.41 
427 143 2 19.5196 9.07785 4.20848 -0.82 
428 143 1 19.2116 8.65594 3.25768 0.41 
429 143 1 19.1365 10.0656 4.29577 0.41 
430 144 2 24.2384 24.4738 14.6459 -0.82 
431 144 1 23.8714 24.9456 13.7938 0.41 
432 144 1 24.021 25.0608 15.4582 0.41 
433 145 2 3.82381 11.504 16.3095 -0.82 
434 145 1 4.01243 10.6221 16.7397 0.41 
435 145 1 2.83761 11.5103 16.0021 0.41 
436 146 2 24.4976 20.188 28.2849 -0.82 
437 146 1 25.1149 20.9387 28.5299 0.41 
438 146 1 23.6679 20.6566 27.8236 0.41 
439 147 2 2.66892 3.51276 24.81 -0.82 
440 147 1 2.1494 3.09733 25.618 0.41 
441 147 1 3.43564 4.11119 25.0426 0.41 
442 148 2 29.0537 11.8175 28.6884 -0.82 
443 148 1 28.9837 10.9411 28.1864 0.41 
444 148 1 28.9296 12.534 27.9707 0.41 
445 149 2 5.26638 4.53017 3.90545 -0.82 
446 149 1 5.07214 5.0202 3.01283 0.41 
447 149 1 5.8674 5.05191 4.55218 0.41 
448 150 2 25.5107 7.9544 15.3016 -0.82 
449 150 1 25.7332 8.85805 15.0045 0.41 
450 150 1 24.7769 7.50118 14.6885 0.41 
451 151 2 18.5998 6.85788 18.5403 -0.82 
452 151 1 18.32 7.3917 19.3934 0.41 
453 151 1 19.2104 7.35571 17.9565 0.41 
454 152 2 7.56812 13.0084 27.8104 -0.82 
455 152 1 8.0375 13.8423 27.623 0.41 
456 152 1 7.90013 12.647 28.6965 0.41 
457 153 2 17.4245 22.7675 9.77989 -0.82 
458 153 1 16.7971 22.4011 9.03861 0.41 
459 153 1 17.0957 23.6887 10.0892 0.41 
460 154 2 30.6396 19.7143 3.98112 -0.82 
461 154 1 30.4421 20.7362 4.03076 0.41 
462 154 1 0.652727 19.4299 4.08238 0.41 
463 155 2 23.4313 6.60785 13.9325 -0.82 
464 155 1 22.5683 6.60415 13.3501 0.41 
465 155 1 23.2758 6.02433 14.7402 0.41 
466 156 2 23.2624 27.4659 12.3162 -0.82 
467 156 1 23.1084 26.4098 12.0258 0.41 
468 156 1 22.6324 27.6857 13.0988 0.41 
469 157 2 5.29679 10.5102 13.1642 -0.82 
470 157 1 6.1887 10.9306 13.3686 0.41 
471 157 1 5.05544 9.74896 13.7923 0.41 
472 158 2 26.304 25.3087 24.0796 -0.82 
473 158 1 25.7188 25.2224 23.236 0.41 
474 158 1 26.3577 26.3053 24.4148 0.41 
475 159 2 6.98213 0.313325 27.3769 -0.82 
476 159 1 6.84755 30.683 28.1401 0.41 
477 159 1 6.80326 1.28166 27.6048 0.41 
478 160 2 28.823 20.2662 23.7777 -0.82 
479 160 1 27.8176 20.1902 24.0947 0.41 
480 160 1 29.0234 21.2485 23.6962 0.41 
481 161 2 8.24683 4.55957 13.6302 -0.82 
482 161 1 7.48762 3.87393 13.5559 0.41 
483 161 1 7.89756 5.23409 12.9083 0.41 
484 162 2 2.25595 5.39505 3.81737 -0.82 
485 162 1 3.06523 4.73485 4.00712 0.41 
486 162 1 1.89628 5.38034 2.81567 0.41 
487 163 2 16.4527 24.8424 11.392 -0.82 
488 163 1 16.9182 25.7328 11.7753 0.41 
489 163 1 16.6615 24.1288 12.0466 0.41 
490 164 2 20.0579 14.2131 12.7328 -0.82 
491 164 1 19.393 14.3307 13.4921 0.41 
492 164 1 19.5594 14.0933 11.8593 0.41 
493 165 2 16.1234 29.6247 9.99748 -0.82 
494 165 1 16.423 29.6928 9.03838 0.41 
495 165 1 15.1193 29.5277 9.96826 0.41 
496 166 2 15.9001 15.7962 13.7089 -0.82 
497 166 1 15.9577 16.2162 12.8103 0.41 
498 166 1 15.2044 15.0151 13.6407 0.41 
499 167 2 30.6571 9.24775 16.465 -0.82 
500 167 1 29.6944 8.85816 16.4291 0.41 
501 167 1 30.6932 9.36795 17.5343 0.41 
502 168 2 24.7186 28.2702 0.541473 -0.82 
503 168 1 24.9788 27.912 1.45132 0.41 
504 168 1 25.1225 29.213 31.3679 0.41 
505 169 2 8.10671 10.8684 8.79659 -0.82 
506 169 1 8.88023 10.2057 8.67226 0.41 
507 169 1 8.439 11.8171 8.72569 0.41 
508 170 2 28.3601 21.5596 29.6684 -0.82 
509 170 1 28.1773 20.6387 30.0676 0.41 
510 170 1 29.1385 21.5602 28.9328 0.41 
511 171 2 2.14017 17.3345 15.9669 -0.82 
512 171 1 2.28057 16.3599 15.705 0.41 
513 171 1 3.08034 17.7041 15.7742 0.41 
514 172 2 1.07687 0.0257249 22.8186 -0.82 
515 172 1 1.10104 1.08125 22.6362 0.41 
516 172 1 0.791794 0.153371 23.7601 0.41 
517 173 2 28.0424 21.5296 15.9524 -0.82 
518 173 1 28.9249 21.9862 16.2808 0.41 
519 173 1 27.5148 22.2488 15.4364 0.41 
520 174 2 13.8715 21.5063 30.9314 -0.82 
521 174 1 14.7217 21.3277 0.533296 0.41 
522 174 1 13.638 20.5155 30.7291 0.41 
523 175 2 7.65519 18.0662 25.2548 -0.82 
524 175 1 8.32988 18.8209 25.4456 0.41 
525 175 1 8.21026 17.1853 25.2328 0.41 
526 176 2 14.3311 25.4372 22.3399 -0.82 
527 176 1 13.4195 25.4305 22.8039 0.41 
528 176 1 15.0227 25.208 23.0786 0.41 
529 177 2 20.6047 5.81965 29.3139 -0.82 
530 177 1 20.2339 5.09344 28.7274 0.41 
531 177 1 21.4817 5.40977 29.7233 0.41 
532 178 2 26.5931 29.7156 20.2937 -0.82 
533 178 1 26.6187 30.5012 19.6422 0.41 
534 178 1 26.2295 28.8882 19.825 0.41 
535 179 2 22.0769 3.85654 3.93908 -0.82 
536 179 1 23.0483 3.67645 3.67418 0.41 
537 179 1 21.6683 4.28594 3.12435 0.41 
538 180 2 25.9368 19.8019 15.6252 -0.82 
539 180 1 25.533 20.2387 14.7323 0.41 
540 180 1 26.792 20.3348 15.888 0.41 
541 181 2 18.8847 24.997 28.218 -0.82 
542 181 1 18.5558 25.9412 28.3404 0.41 
543 181 1 19.8872 24.9599 28.4421 0.41 
544 182 2 4.73996 6.3748 1.82149 -0.82 
545 182 1 4.75407 6.76745 0.935175 0.41 
546 182 1 4.46475 6.96614 2.60938 0.41 
547 183 2 4.48048 25.2281 4.40523 -0.82 
548 183 1 4.11527 25.5902 3.50278 0.41 
549 183 1 5.46051 24.9089 4.2616 0.41 
550 184 2 16.0867 21.8791 7.50933 -0.82 
551 184 1 15.5088 22.6578 7.14206 0.41 
552 184 1 16.6813 21.4977 6.70336 0.41 
553 185 2 20.1521 27.4783 17.7899 -0.82 
554 185 1 21.0565 27.9323 17.6365 0.41 
555 185 1 19.5637 28.3401 17.6114 0.41 
556 186 2 3.31858 7.64847 9.17195 -0.82 
557 186 1 2.85976 7.83827 10.0832 0.41 
558 186 1 3.96186 8.39327 9.09328 0.41 
559 187 2 25.4808 3.06273 27.9953 -0.82 
560 187 1 25.7796 2.78702 28.9843 0.41 
561 187 1 25.9274 3.96881 27.7416 0.41 
562 188 2 25.1245 11.9424 19.1128 -0.82 
563 188 1 25.4418 12.7606 18.5509 0.41 
564 188 1 24.8284 11.2703 18.4182 0.41 
565 189 2 9.45408 18.7791 30.2721 -0.82 
566 189 1 9.5523 19.4808 29.516 0.41 
567 189 1 9.9376 17.916 30.0423 0.41 
568 190 2 14.0196 17.7626 26.2962 -0.82 
569 190 1 13.8433 17.5952 25.3382 0.41 
570 190 1 14.572 18.6405 26.4042 0.41 
571 191 2 24.9579 11.0185 12.1956 -0.82 
572 191 1 25.2624 10.959 11.2344 0.41 
573 191 1 24.1637 10.4352 12.4231 0.41 
574 192 2 13.6973 5.33624 19.011 -0.82 
575 192 1 13.1244 6.09914 19.3985 0.41 
576 192 1 14.4005 5.92967 18.5091 0.41 
577 193 2 9.1399 20.9224 10.2242 -0.82 
578 193 1 8.33855 20.8263 10.8594 0.41 
579 193 1 10.0338 20.6908 10.7467 0.41 
580 194 2 23.6134 18.8754 25.2873 -0.82 
581 194 1 24.5767 19.1824 25.1911 0.41 
582 194 1 22.9099 19.2704 24.6284 0.41 
583 195 2 21.5735 11.2634 20.818 -0.82 
584 195 1 22.1027 12.1197 20.5938 0.41 
585 195 1 21.8174 10.9336 21.7648 0.41 
586 196 2 8.31396 10.209 3.02264 -0.82 
587 196 1 7.95358 10.7346 2.24379 0.41 
588 196 1 7.65229 10.3863 3.75676 0.41 
589 197 2 8.8237 3.81597 3.19246 -0.82 
590 197 1 8.25948 4.5731 2.72184 0.41 
591 197 1 8.77613 4.11683 4.13967 0.41 
592 198 2 5.52642 26.7787 15.3483 -0.82 
593 198 1 6.28679 27.2235 15.7797 0.41 
594 198 1 5.72184 26.8353 14.3673 0.41 
595 199 2 17.6718 12.827 24.2465 -0.82 
596 199 1 17.595 11.9045 24.7058 0.41 
597 199 1 17.7166 12.6067 23.2424 0.41 
598 200 2 7.04439 16.0195 9.6445 -0.82 
599 200 1 7.55733 16.083 8.77026 0.41 
600 200 1 6.03353 15.7675 9.49576 0.41 
601 201 2 24.8504 24.0443 1.03368 -0.82 
602 201 1 25.1114 24.3081 0.0758377 0.41 
603 201 1 25.7024 23.7345 1.45592 0.41 
604 202 2 2.96485 21.596 2.02017 -0.82 
605 202 1 2.11776 21.1841 1.60546 0.41 
606 202 1 3.22813 22.3076 1.33262 0.41 
607 203 2 12.5732 9.41577 2.58482 -0.82 
608 203 1 12.8011 8.39335 2.55283 0.41 
609 203 1 12.0073 9.78059 3.40131 0.41 
610 204 2 21.1427 26.3956 2.06084 -0.82 
611 204 1 21.6904 27.2147 2.44225 0.41 
612 204 1 21.7098 25.6476 2.44655 0.41 
613 205 2 22.9861 10.512 26.1734 -0.82 
614 205 1 22.2191 10.6413 26.9407 0.41 
615 205 1 23.7791 11.1606 26.3004 0.41 
616 206 2 26.046 16.7934 5.11223 -0.82 
617 206 1 26.765 17.5134 5.13852 0.41 
618 206 1 26.3907 16.2768 4.30399 0.41 
619 207 2 28.6244 9.79993 8.36376 -0.82 
620 207 1 29.0548 9.69043 7.45612 0.41 
621 207 1 29.2897 9.9524 9.18902 0.41 
622 208 2 8.74613 18.3879 16.6016 -0.82 
623 208 1 8.73081 18.3919 15.5385 0.41 
624 208 1 8.7618 19.3627 16.9409 0.41 
625 209 2 6.23839 13.1186 22.0303 -0.82 
626 209 1 7.10754 13.6731 21.8693 0.41 
627 209 1 5.90589 12.7138 21.1382 0.41 
628 210 2 8.41642 18.7316 13.8228 -0.82 
629 210 1 7.57678 18.4176 13.3037 0.41 
630 210 1 8.22713 19.7132 14.157 0.41 
631 211 2 4.12028 15.7098 31.0283 -0.82 
632 211 1 3.83412 16.318 0.854408 0.41 
633 211 1 4.77988 16.2229 30.4927 0.41 
634 212 2 20.2539 13.5418 5.33448 -0.82 
635 212 1 21.0043 13.879 6.06891 0.41 
636 212 1 20.141 14.3238 4.68657 0.41 
637 213 2 12.3339 3.98333 4.85684 -0.82 
638 213 1 11.6321 4.62458 5.29533 0.41 
639 213 1 13.2404 4.25088 5.26585 0.41 
640 214 2 5.11121 22.0609 15.9494 -0.82 
641 214 1 5.51824 22.8192 16.5296 0.41 
642 214 1 4.11692 22.2246 16.0218 0.41 
643 215 2 27.0031 26.6388 14.565 -0.82 
644 215 1 27.0039 25.935 15.3205 0.41 
645 215 1 27.9927 26.9756 14.6806 0.41 
646 216 2 30.0795 12.6078 6.27087 -0.82 
647 216 1 30.0155 13.0357 7.19823 0.41 
648 216 1 -0.0828603 12.9683 5.8045 0.41 
649 217 2 4.78212 4.14178 11.3168 -0.82 
650 217 1 5.44005 3.68538 11.931 0.41 
651 217 1 4.95295 3.68113 10.3906 0.41 
652 218 2 30.8986 9.27823 19.1446 -0.82 
653 218 1 30.761 9.413 20.1909 0.41 
654 218 1 0.858893 8.95828 19.022 0.41 
655 219 2 9.13432 15.912 25.9228 -0.82 
656 219 1 9.46479 14.8951 25.8884 0.41 
657 219 1 9.46097 16.4704 26.7214 0.41 
658 220 2 29.1628 12.7906 1.87814 -0.82 
659 220 1 29.9993 12.3878 1.35744 0.41 
660 220 1 28.408 12.0936 2.09147 0.41 
661 221 2 22.4093 12.489 16.5202 -0.82 
662 221 1 23.1357 11.7373 16.5205 0.41 
663 221 1 23.0168 13.3541 16.4571 0.41 
664 222 2 18.6003 29.7109 16.353 -0.82 
665 222 1 18.0803 30.6347 16.3392 0.41 
666 222 1 17.8361 28.9711 16.2714 0.41 
667 223 2 11.8285 21.428 8.15356 -0.82 
668 223 1 11.7542 20.5534 8.66909 0.41 
669 223 1 10.9075 21.6639 7.68995 0.41 
670 224 2 14.769 1.97145 6.60751 -0.82 
671 224 1 13.7745 1.84196 6.9321 0.41 
672 224 1 14.8254 2.29294 5.59727 0.41 
673 225 2 27.9803 4.1321 1.42497 -0.82 
674 225 1 27.2343 4.33144 2.10368 0.41 
675 225 1 28.6338 4.9211 1.4715 0.41 
676 226 2 13.7859 23.7705 11.21 -0.82 
677 226 1 13.637 23.5351 10.2035 0.41 
678 226 1 14.7752 24.0868 11.1927 0.41 
679 227 2 1.05583 11.4684 23.3138 -0.82 
680 227 1 1.48291 12.1001 24.0397 0.41 
681 227 1 1.65753 11.6595 22.458 0.41 
682 228 2 11.3357 27.1219 29.7984 -0.82 
683 228 1 11.0862 27.7388 29.0785 0.41 
684 228 1 12.2228 26.6369 29.6133 0.41 
685 229 2 4.73094 17.0465 21.364 -0.82 
686 229 1 4.5322 16.7591 22.297 0.41 
687 229 1 5.5615 17.6805 21.3997 0.41 
688 230 2 16.0419 16.774 11.1492 -0.82 
689 230 1 15.7059 17.1634 10.2192 0.41 
690 230 1 16.8178 17.2898 11.5493 0.41 
691 231 2 29.6247 9.95652 5.67554 -0.82 
692 231 1 28.7305 10.3892 5.31943 0.41 
693 231 1 30.0452 10.8078 6.16741 0.41 
694 232 2 8.07155 4.57526 23.9921 -0.82 
695 232 1 7.36728 4.19909 23.3541 0.41 
696 232 1 8.35855 3.84592 24.6755 0.41 
697 233 2 8.94539 23.2681 14.5879 -0.82 
698 233 1 8.85334 24.0815 15.2549 0.41 
699 233 1 8.43732 23.5462 13.697 0.41 
700 234 2 26.2984 5.24139 22.0497 -0.82 
701 234 1 25.3921 4.91416 21.5357 0.41 
702 234 1 26.2176 6.28131 22.0317 0.41 
703 235 2 1.58638 7.59139 25.7148 -0.82 
704 235 1 2.24248 8.36144 25.8023 0.41 
705 235 1 1.67972 7.03751 26.6373 0.41 
706 236 2 16.77 0.612028 16.4516 -0.82 
707 236 1 17.1701 1.144 15.5953 0.41 
708 236 1 16.3319 1.29254 17.0492 0.41 
709 237 2 24.2686 11.5421 5.32485 -0.82 
710 237 1 24.9393 10.9163 5.73374 0.41 
711 237 1 23.4407 11.1112 4.92868 0.41 
712 238 2 20.2092 30.5871 11.2423 -0.82 
713 238 1 19.3679 29.9304 11.2421 0.41 
714 238 1 20.6395 30.2605 10.3769 0.41 
715 239 2 6.92104 11.7124 1.11499 -0.82 
716 239 1 6.07245 11.1673 0.833508 0.41 
717 239 1 6.76496 12.1909 2.01402 0.41 
718 240 2 13.5317 17.844 12.8787 -0.82 
719 240 1 13.4768 17.0424 12.2282 0.41 
720 240 1 12.6661 18.0341 13.3621 0.41 
721 241 2 9.69833 30.8222 22.5247 -0.82 
722 241 1 9.9711 29.8938 22.8121 0.41 
723 241 1 8.84614 0.225782 22.9058 0.41 
724 242 2 15.5838 19.589 14.7228 -0.82 
725 242 1 15.0381 18.7457 14.4941 0.41 
726 242 1 14.991 20.3155 15.1972 0.41 
727 243 2 25.8448 30.5643 24.5506 -0.82 
728 243 1 25.4569 30.7205 25.4847 0.41 
729 243 1 26.6686 0.127825 24.3219 0.41 
730 244 2 24.7054 0.251594 14.0001 -0.82 
731 244 1 25.1722 30.3138 13.997 0.41 
732 244 1 23.7364 0.0796347 13.9403 0.41 
733 245 2 0.191559 9.95675 13.8294 -0.82 
734 245 1 30.814 9.40526 13.0396 0.41 
735 245 1 30.8197 9.47932 14.7105 0.41 
736 246 2 14.6103 14.5368 10.8415 -0.82 
737 246 1 14.2094 14.0984 11.6363 0.41 
738 246 1 15.051 15.4414 10.9878 0.41 
739 247 2 21.4701 10.9884 10.2061 -0.82 
740 247 1 21.2697 11.8689 9.76 0.41 
741 247 1 22.4487 10.7566 10.0425 0.41 
742 248 2 0.564377 14.3913 17.4705 -0.82 
743 248 1 0.381912 15.4394 17.6833 0.41 
744 248 1 30.75 14.0871 16.9507 0.41 
745 249 2 12.1471 12.1375 19.4552 -0.82 
746 249 1 11.6927 11.3552 19.9332 0.41 
747 249 1 11.4169 12.808 19.1546 0.41 
748 250 2 15.5388 1.01557 12.1779 -0.82 
749 250 1 15.5649 0.511901 11.3134 0.41 
750 250 1 15.5682 0.327698 12.9651 0.41 
751 251 2 4.75425 24.2869 12.082 -0.82 
752 251 1 4.35603 24.9737 11.4145 0.41 
753 251 1 4.37575 24.4292 13.0129 0.41 