ITEM: TIMESTEP
0
ITEM: NUMBER OF ATOMS
28
ITEM: BOX BOUNDS abc origin ff pp pp
535.9102 0.0 0.0 -253.8522
0.0 42.81 0.0 0.0
0.0 0.0 42.81 0.0
ITEM: ATOMS id type x y z
3501 2 281.1893231284 6.7108364973 8.1529014054
1021 2 281.4178485299 0.4263756878 0.7421504678
327 2 281.6913546434 9.1629270065 15.2629978439
2734 2 281.9901024702 5.995436603 15.3753463633
2229 2 281.5372779509 9.7078804091 36.8515303227
3360 2 282.0399968052 5.2286770276 34.3851984149
188 2 281.4570809531 15.820403968 16.5563992456
3791 2 281.9817336197 18.6010977506 32.8260711943
3083 2 281.9852870671 21.9430519905 12.8324807295
1824 2 281.7020001042 23.6789993852 25.5583395063
4764 2 281.4022863026 38.3353656333 14.2168613728
1888 2 281.9530068232 41.1969093024 22.4396039618
3953 2 281.8924003487 32.7320261419 37.6358306468
3142 2 281.561386649 36.7286273075 34.2282699584
2325 2 281.500341214 39.9131483135 36.4343928301
5057 2 281.8217334813 32.8240887315 33.6831185514
88263 2 281.6850512428 21.6738881379 5.0239379005
97050 2 281.7785747427 9.2496482502 4.872055787
98180 2 281.870680999 1.7672876102 14.4058687061
94320 2 282.0531468324 21.2856846315 10.1958998941
97171 2 281.8556549644 14.8395132796 13.4691810915
94572 2 281.5789567057 18.4035376871 28.8763099954
94967 2 281.4356191254 31.1361168349 7.6131497197
96946 2 281.7904985678 26.1175076571 14.0510035179
94511 2 281.9163242687 29.8121469467 22.1020144585
95300 2 281.8575345651 23.8919000154 39.199623597
93878 2 281.7639074136 37.5655368839 31.3827399728
93973 2 281.9138401644 38.2975323771 40.6346133587
