ITEM: TIMESTEP
0
ITEM: NUMBER OF ATOMS
12875
ITEM: BOX BOUNDS abc origin pp pp ff
813.1887 0.0 0.0 0.0
0.0 813.2238 0.0 0.0
0.0 0.0 1375.3151779248 0.0
ITEM: ATOMS id type x y z
91950719 2 7.6051361026 0.6802832311 0.0115841755
94384161 2 24.0729979575 2.2938339412 0.7868813348
4953 2 49.4352857668 1.1716816832 0.7082841407
7356 2 72.9897368026 0.8965423348 0.0307114879
109171 2 100.9430543952 52.1171041739 0.3849523524
101734 2 45.2432249531 45.3539914733 0.2451292686
91860828 2 61.1261657432 4.687229765 0.3142039921
91864439 2 85.9968347235 4.6306675505 0.4089564321
11078 2 99.9044145348 4.2622844994 0.3626324515
8134 2 75.2832062019 15.4276881676 0.1342817865
91864267 2 75.9102310431 10.1639590632 0.2859398698
93929 2 2.0528390252 11.8338717432 0.3122981786
91864450 2 67.481233466 5.7094384805 0.0796746451
91863960 2 77.5767482909 13.0767569097 0.3092351229
91864514 1 88.8978591308 12.070399992 0.3374760852
98218 2 20.788546246 51.9794417669 0.1442174385
98113 1 17.0919343225 52.7662278852 0.1689936552
91856760 2 19.2839179831 16.1013794021 0.5474087758
194520 2 25.7709477833 54.0417278583 0.0997383156
91864528 2 67.6785599968 16.8130469944 0.4681886442
91857254 2 1.7417260064 18.4530476842 0.6650302412
3934 2 55.2465020958 10.6985332298 0.7252412909
8218 2 79.3635211589 20.4337556279 0.4373493208
91954502 2 8.9682995139 41.2779570764 0.6684914298
104626 2 90.1489526156 22.0541596492 0.5758343389
8368 2 93.7114265234 23.046644979 0.5221537367
11178 2 100.4262520076 22.207946134 0.0338779369
91860453 2 47.9499490615 24.9296600479 0.3377843541
91864694 2 55.7285438333 24.1491169059 0.5397798914
7751 2 74.9720521463 27.0211368522 0.5644885957
91954452 2 2.554957496 27.3087458997 0.444048587
91957929 2 28.2273195225 28.9185419219 0.4446791545
91957400 1 59.2791577907 50.846750966 0.0611332285
91957882 2 46.7427439944 28.674381484 0.4783154821
4021 2 47.0354962863 26.3192826254 0.6853610639
4198 2 69.9618535411 28.0293721578 0.6326860651
105184 2 83.3936742402 26.801840402 0.1678871888
104448 2 71.0494409926 32.5638790833 0.2176824407
91960893 2 70.5411054317 31.0661963399 0.5640253852
91960895 2 73.0947794297 29.2348476575 0.2844352799
91965036 2 94.7809160229 31.142543062 0.6430755374
91954341 2 0.4549315866 35.493693289 0.5264714172
98001 2 21.5311145538 33.155390916 0.526234664
101540 2 32.0815466164 34.8746015229 0.4037893764
101677 2 49.9545979272 34.337513069 0.5495708965
91960915 2 86.8976580433 33.4885342045 0.1155909611
101683 2 35.5720654615 49.5430185903 0.367201182
101139 1 56.3206286076 35.9511579993 0.1670234512
91961704 2 71.5617428412 37.8832508495 0.7293784474
97531 2 19.7931989748 40.4402083266 0.5486955868
97428 2 21.6672409552 39.513653841 0.4749484768
91957872 2 47.9660187231 40.2549816535 0.8577788709
104795 2 75.5931005097 51.985754135 0.3221375616
98039 2 18.7558611939 41.6161234213 0.306049161
97545 2 25.6145493278 42.8384864517 0.5244653319
97976 1 30.6803829474 42.219922384 0.3527928272
101043 1 23.9530177952 45.8486742403 0.1541760683
91958243 2 50.1524875372 45.8097658847 0.5480262298
91958054 2 34.0316499037 50.0770074947 0.3894482421
108309 2 99.1636058318 49.3252516031 0.7582203943
91954454 2 1.9051257806 51.0963762752 0.7019335857
194543 2 6.9942912793 62.6992405999 0.0809684685
98194 2 10.8278660383 51.1426942025 0.3311631621
91953576 2 32.1918232604 50.6213733435 0.4004949485
91958051 2 39.8732178742 50.9714871802 0.5188034095
91957606 2 44.3509132951 50.5191098577 0.1456579108
101818 2 52.2628094764 52.5955286616 0.4178678107
191266 2 8.6875286005 47.3040140346 0.2600061778
201718 2 93.3204069824 52.8558776621 0.5146441359
97696 2 11.3229238387 54.651304628 0.5604724229
92055140 2 26.3304478501 56.5324998694 0.4311635323
92055129 2 26.0665110943 58.1775584461 0.4783663797
198087 2 42.6400628782 56.5892458598 0.143271102
101351 2 44.1770005388 56.7052243182 0.1315519537
105502 2 71.3606971578 57.2144579876 0.4515607413
92058808 2 85.4957134604 57.9600697744 0.499979063
198070 2 50.6013341274 63.1047879506 0.1994272591
101361 2 56.7495231334 59.2467642494 0.4497730556
3863 2 23.9539801287 18.8304126148 0.2026474672
91860018 2 29.1943144138 4.1873498095 0.0338548174
92145231 2 5.3381197064 63.7795445604 0.6089465387
97749 2 14.5085517616 61.7733501268 0.4101899676
91958011 2 54.8931780082 38.7401534743 0.3067473897
92050915 2 26.7061043037 64.4034064026 0.425759091
92054515 2 56.6784541101 61.990586674 0.8177876001
94384154 1 28.440142739 2.6449448756 0.0729617252
205940 2 91.3174438585 63.4030349024 0.5704679687
101804 2 44.0240151914 46.5536859935 0.3560071747
198394 2 37.4535736625 66.4057308436 0.4619746175
201689 2 80.7672165688 66.7174795615 0.4034136389
91954031 2 9.3766401923 58.0167401688 0.4541408168
7402 2 71.5323478547 0.0281384123 0.049632748
7376 1 76.8143227588 2.4205012393 0.1419195203
91954512 2 12.557527664 46.6279444315 0.1202531903
92051563 2 22.9890731906 65.5522452613 0.7522071086
91957883 2 52.1920614239 36.1738481933 0.3378769776
94198 2 10.7872757535 27.9764607575 0.3438000079
91857369 2 2.417169302 14.3883481146 0.3913493003
91864174 2 79.5416997883 34.4328206301 0.0653060308
187 2 15.924401331 10.1054851389 0.102386343
198068 2 51.1514653035 61.4937581321 0.2675865714
1353 2 18.3496912969 3.3839366108 0.0561648157
91860813 2 43.9161659354 1.2937160771 0.123508479
8813 1 73.2442725047 17.466324067 0.0887624477
91957940 2 29.457753852 27.9700409219 0.0541056905
466 2 40.3261187841 17.1377207437 0.0498723353
91961983 1 95.2974575911 49.0362536412 0.0396987118
10802 1 94.2811796635 12.2481414295 0.0731723535
288120 2 0.0517616607 55.3060128901 0.409390869
3635 2 45.7187961955 0.2152291428 0.0428490754
102153 2 48.4027070787 32.5579219381 0.2360694856
91958275 2 51.1195625945 55.5362740383 0.0564572565
108045 2 92.7617573682 47.9910290299 0.2682314477
4472 1 47.905530044 6.7627745372 0.1029701418
7631 2 87.8834128488 25.0034969194 0.0314896135
4294 2 52.6648378566 8.8130698489 0.0984742128
7564 1 61.6101472963 20.0725030761 0.1661462775
92058831 2 93.8537878601 65.2394128381 0.2479851433
1018 2 23.5291553754 22.7689700533 0.3333261624
91954535 2 16.2266049779 37.1136644021 0.1591742526
105568 2 92.7894347766 51.2863136358 0.0099290579
198180 2 50.7168947724 65.5307005994 0.1584682796
91954675 2 23.2013602762 56.0654447391 0.1341707703
7459 2 60.1883400477 1.9731998914 0.0938282693
381 2 4.0223256149 14.720362491 0.3126961346
101075 2 41.2143524722 45.0208091132 0.3013442948
92062605 2 98.183505041 67.5544812668 0.4948086728
109 2 24.1724348852 0.8178449354 0.0400453134
7774 2 87.3424384775 26.5331732685 0.3571629361
97484 2 5.2262674138 48.3018464905 0.2126009643
201994 2 72.0560971499 65.3449193851 0.464526918
104951 2 75.7459662584 59.6458279667 0.1894888446
92145227 2 6.0500542728 65.1156385119 0.2439326285
4100 2 34.0557252597 37.8971045423 0.1073499272
108143 2 98.8986961641 33.4887573354 0.2874816787
92055132 2 25.7319543035 60.8014282208 0.0371907948
91954020 2 23.3699451257 49.4929125058 0.3661026217
91860912 2 44.3739755936 14.1694969861 0.0906108005
92055126 1 31.2881749504 56.8880595838 0.0013043278
101494 2 50.5747084014 37.9129287165 0.0142631443
202380 2 82.2526938131 67.3693581278 0.0101138804
3921 2 65.9460794783 6.1683552788 0.022330281
1472 1 4.5148546879 10.0304849605 0.0012638625
97461 2 9.8972010596 46.3489120805 0.0050246608
198839 2 50.7435057805 68.7667636995 0.7719768569
202077 2 75.4405554134 70.3010804432 0.7050937418
195568 2 30.6375714668 80.9127092958 0.1492246279
92054760 2 48.6474469314 73.2181423353 0.2467673864
198239 2 56.1169672069 73.1810610727 0.6743918352
198573 2 51.5448756399 89.7861406075 0.0559602651
396119 2 83.7389253086 130.9642469902 0.1228786934
299361 2 85.8132955 116.9966567071 0.0993476289
202762 2 82.5573375377 73.5779830078 0.4001167961
205340 2 81.4622136031 74.7496578212 0.6750307008
92155288 2 74.4519541959 94.6297979624 0.6049464996
198284 2 37.5660096945 78.9250633081 0.0629042307
205326 1 86.7612557405 77.0036365484 0.3643055013
194817 2 9.0524856064 81.7324434648 0.0627137461
295320 2 59.4231733779 81.6113923459 0.9699559373
202594 2 72.0379350544 79.5693425483 0.0390567318
194974 2 26.5886495981 83.9817172882 1.1231162084
92151896 1 32.9915048485 83.6467002371 0.3875180455
194996 2 40.6419222488 84.2400862412 0.6447383534
92058279 2 67.7683968756 72.3739079845 0.0801959503
299524 1 60.914695081 77.2920938932 0.1988455756
92059082 1 62.4553862338 84.9826292976 0.3907428639
299086 2 65.4552374685 112.0444732517 0.3071840937
92058406 2 72.2870415088 83.0407393765 0.6060187699
92051231 2 7.3189411385 87.3971202104 0.9336548495
295984 2 51.8506482394 86.9049212666 0.3217334556
92058552 2 78.0433032958 87.8134591694 0.0232260642
291921 2 35.90233574 95.6221349466 0.0766224589
92158986 2 100.683764819 87.6395905914 0.2971274102
92148095 2 16.2041780233 91.9768817167 0.3168338951
292384 2 23.3983495356 89.4390637673 0.6545931686
291994 2 10.7522389941 92.9796730986 0.9029444975
92159416 2 91.5618409385 93.0629954276 0.4656978216
92159445 2 96.2492735394 93.2014321743 0.4610829567
92062742 2 100.1801326749 91.632558853 0.5550534166
292357 2 8.753825589 96.2570361812 0.3896423202
92152450 2 36.9574651562 96.8934547661 0.4260347305
198331 2 49.3690478576 68.9680984488 0.1329511007
295250 1 34.9457413783 99.5866177658 0.043411641
298814 2 68.2536958544 84.1600644769 0.1773492904
92249468 2 48.3716405467 115.5775045093 0.4814132578
296002 2 58.4351413063 96.8070907345 0.2528909855
298857 2 64.6540728428 98.945845364 0.5778650147
298987 2 73.3519000423 99.4046119439 0.0832069067
299596 1 91.6675280021 97.6076276686 0.3969396856
300046 2 64.124872209 100.4057738175 0.1740340159
92252736 2 70.9009232838 122.3946522862 0.2781378351
92155949 1 68.9878094194 105.4993032766 0.3401426501
92156015 2 78.5800519941 104.8071945701 0.2974519474
299217 2 70.0143323496 110.655207624 0.1275287617
295561 1 33.0385503716 106.7171483704 0.5800068128
92156243 2 81.9661217205 106.7904787951 0.3934244139
299272 2 87.8146335107 106.7312880813 0.8608152502
293075 2 11.3924158363 110.5482271383 0.5918775431
292747 2 15.6483848315 108.5067989352 0.47878474
92148200 1 28.1964660687 110.5681057807 0.0270879962
92156198 2 58.0968799001 110.5254027029 0.1598980609
92155979 2 74.8898969922 111.0947917657 0.6821827073
92159583 2 96.8125091047 111.267138703 0.6828826995
92148783 2 7.3569045369 112.7893034122 0.748707591
292771 2 11.1043255766 112.7511982064 0.5905697812
92148324 2 21.3056839441 102.6857773989 0.1375127336
296099 2 50.7284441869 112.3930460073 0.6592399917
299180 2 72.987546005 114.2274403452 0.6961816236
299195 2 75.6677933376 113.5549727197 0.0326788646
92152342 2 43.726531995 100.5962867661 0.4939509478
92256671 2 88.0824953167 132.4444352639 0.0353533817
393184 2 54.3551363311 118.306981038 0.5277811762
92252586 2 69.6977562066 118.3322758417 0.6072514937
202506 2 79.538450114 80.4603001771 0.5383003051
299270 2 97.9357939464 119.6383353211 0.6208454806
299394 2 97.3353314949 118.2435353554 0.1663342949
92246013 2 12.461005722 124.9090807867 0.4736148784
392448 2 39.1083860884 124.9324890752 0.7625761872
392587 2 45.100495157 128.3594353567 0.5319415811
92253181 2 85.5571632954 127.7064418532 0.7006641677
92249471 2 28.9471452404 132.5465756777 0.0690401375
92249542 2 44.3781126784 132.0857379785 0.2496306554
92050668 2 26.9272522955 93.3649769254 0.352618569
92249615 2 49.4547796337 134.5372815104 0.3134482584
389615 2 28.7959050274 125.4770675208 0.3073093681
92253066 2 77.3937838084 103.642195342 0.0363534331
92058898 2 72.2880694408 69.3830700332 0.1281484126
202198 2 101.5698235719 84.7510608376 0.0821141688
202609 1 83.8036642788 80.381933959 0.0073114547
295778 1 58.3500380473 105.6460048759 0.1399561693
92256062 2 99.5834261729 118.4965830313 0.3338066234
385401 2 8.2279625122 94.7165493299 0.0290393551
292038 1 17.8610189612 102.8212728665 0.0199019071
92152575 2 38.5246095322 115.5440156669 0.0903620164
393166 2 33.2722770291 129.5094962534 0.3210247227
92245508 2 5.6901243312 114.4625067218 0.2392997646
92055374 2 30.6777674316 73.3830512489 0.7398100828
92148211 2 27.8351072719 102.8639166315 0.4088084809
389194 2 11.4678050986 127.5268474139 0.1557340207
292752 2 11.2667967372 114.3103233295 0.2401483152
201982 2 62.297908134 81.3624315712 0.5296932082
92148890 1 13.5527957404 100.5192875743 0.0335647492
92155068 2 88.3564762116 126.0546062854 6.7456938861e-04
92152479 2 40.5618576238 99.0339625861 0.1441212691
205522 2 98.7702015953 80.6594044142 0.0979412048
92055250 2 35.4130043397 68.0030370975 0.2555715956
291936 2 19.1076360715 107.546611966 0.1644468011
291719 2 23.3378031214 100.8066045682 0.205901708
92253211 2 84.1617806831 128.361013516 0.175249585
92061993 2 94.7052113736 77.6912781822 0.4283526356
396109 2 84.5485372087 123.9780980015 0.5950666831
295770 2 52.7619452332 106.3897444263 0.4112919694
92062694 2 85.5618481985 86.4512487434 0.1979388428
198883 2 32.2198558194 78.8921446017 0.0317787033
201980 2 73.0723084567 81.714272069 0.1475629257
195334 2 14.073708236 76.2869504195 0.2438322592
295666 2 72.2580245321 104.0604149561 0.155703503
482640 2 2.7797021576 115.9548746275 0.3369070126
92159942 2 101.3635396585 121.2140944833 0.7211253667
92152646 2 45.05014106 116.4236928803 0.3957220722
483196 1 1.9919243017 132.0339682018 0.1336403855
92058564 2 88.1180953065 92.2827028217 0.0387362136
292401 2 19.1600545044 95.3940378756 0.1153905183
92159654 2 93.2633688045 110.274999355 0.2943950702
295654 2 55.538858685 99.4994816766 0.1061388502
303253 2 84.486830152 106.6629722329 0.5722710395
92051517 2 21.5229486304 74.918350619 0.0162503314
194866 2 39.7413104961 76.2753550554 0.0029270256
198500 2 30.939809513 97.2037839035 0.0045063648
396118 2 91.2196534646 109.1647579805 0.0098124416
486717 2 25.1948848015 139.1752082914 0.6228986771
393571 2 39.4683506288 140.8680235253 0.2748282853
92451424 2 98.449779119 197.947582594 0.2679725431
397171 2 70.4934937595 139.4914613398 0.6075098655
92256783 2 93.7456550961 139.7976246511 0.1741259305
389818 2 18.4080824884 143.3901872484 0.3545350514
393552 2 41.0722329237 141.3457622932 0.7770055246
92349908 2 62.2655367961 142.2797945164 0.6213207924
397008 2 71.5732857287 142.9619898172 0.2572992214
92252613 2 85.3181117147 142.3917641393 0.6084115875
392660 2 27.0332875018 145.1500219603 0.2157178997
92249231 2 36.5331350778 147.319553086 0.7254670503
583638 1 19.6915895166 193.0190882054 0.0650789937
92245761 2 24.0824900711 150.1183347551 0.1233762722
92249974 2 41.21957761 149.1559860551 0.4222920991
493984 2 84.1774063254 149.2993862461 0.3170577404
496928 1 93.86226194 149.5197580215 0.3957388489
396594 2 96.922471134 147.3545280904 0.2473686086
92436714 2 5.1133983548 152.7568113937 0.8435815111
92246322 2 8.4847410056 152.4042424263 0.5857670746
594132 2 85.4882521135 183.6510183768 0.1925827777
486087 2 11.9544430497 150.3190504289 0.225134693
587136 2 45.5519018956 201.4544111752 0.1720348413
497002 2 100.6565471692 152.4289870679 0.9009513672
486143 2 8.8342431876 153.9165612663 0.5583823971
92346643 2 30.4335387961 152.9329211845 0.2572575121
486839 2 22.0916083573 158.9344626144 0.7212880647
489787 2 44.6894659076 157.2941878899 0.960031304
92350450 2 69.8079059144 157.6056919724 0.2785766622
92343298 2 15.3343487422 159.911127418 0.4907725598
92342826 2 23.9330944243 172.4025721364 0.1652267015
486954 2 39.4368937695 158.9894360639 0.6962825092
92346897 2 43.7284131192 162.3736214431 0.5756792707
490077 2 46.7669202994 161.6292313907 0.5181603577
92349688 2 75.748222403 159.7944585272 0.8478817981
92350267 2 79.0005574814 160.403232189 0.6191489464
92354205 2 99.6263917752 161.9291310276 0.3445341769
486050 1 7.564916415 164.0001690086 0.1992685636
400102 2 79.4092310682 163.2076675207 0.0089765313
493534 2 87.7461443555 164.0426763432 0.2854405384
490486 2 48.7092508203 165.9655955237 0.1869849437
487367 2 2.6940675185 168.179746839 0.6990375542
487004 2 20.4219712237 168.4648416632 0.1541719754
489875 2 44.6257625739 168.9405283778 0.2532939468
490056 2 52.1375150828 170.1467155408 0.4800829986
591136 2 62.6352643445 168.5080229164 0.1927299644
489754 2 48.425768988 155.6131971733 0.3096403422
497218 2 99.0780070408 169.7820336656 0.2654853947
494218 2 81.644793295 172.2642903149 0.2069380296
92346783 2 37.5639516064 173.5862249107 0.5557096629
493796 2 100.9496627654 176.4091835799 0.432843827
583248 2 8.5042917798 178.5165260215 0.7225954053
92446895 2 77.506212747 176.9516281327 0.1044138857
493761 2 84.3635783172 178.1391171623 0.5007732902
92439693 2 7.5458637796 179.8075795543 0.3680362823
92439908 2 4.3733314296 176.561252326 0.0914874064
92350724 2 68.2236301199 180.5659416318 0.312395179
497087 2 101.1872030287 171.079343825 0.3969916973
497566 2 96.0166325437 159.8280462126 0.1300411311
92444028 2 58.6121720051 184.7401094374 0.4161021284
583980 2 23.5070774595 188.1112032734 0.4720095145
586932 2 27.0878845769 189.4807188572 0.3581426767
584008 2 31.4151039292 189.9190726863 0.462921983
586859 2 51.0856738522 189.5964668413 0.1741020943
92447418 2 66.6799309426 177.8660599783 0.3435775537
92443883 2 51.959784387 186.607047969 0.2982453018
594371 2 98.4266557705 190.589235726 0.3440962799
496817 2 93.778410219 166.0260641102 0.5744126823
583545 2 23.0283430329 191.0949487561 0.689178348
591176 1 87.9203957742 191.2843405612 0.3597608961
92440628 2 5.7800498697 196.0639903095 0.6968804961
583448 1 9.0791422138 196.3002203437 0.1473904246
92253566 2 77.1581177702 144.2928178208 0.2033483588
590543 2 66.5182693662 183.632491818 0.134896209
584086 2 18.559179696 197.9792790604 0.5619214953
583672 2 23.8821709133 197.9634973577 0.5951134813
594322 2 100.9027903346 199.5118772683 0.4858673812
497084 2 94.8064683778 167.3643526953 0.0533072763
92443176 2 60.7356988231 200.9391787347 0.6929147317
392960 1 49.489968408 152.605492339 0.0404879973
587145 2 55.3386274085 189.9416648265 0.029494817
92350794 2 98.3425400847 171.1984163347 0.1391707129
594202 2 99.1210020335 183.6149170987 0.4964479876
590438 2 69.380673309 181.7493512781 0.0789672813
486297 2 21.0779794424 175.2727232125 0.1008419024
583534 2 23.6677044496 193.1981094273 0.0580477905
92342961 2 24.4923609703 182.5157339586 0.3081821045
591306 2 78.5062453468 199.0954913623 0.130226807
92440247 2 5.5627299798 185.5313198772 0.1873749595
92349785 2 71.9595087769 153.1857195265 0.3692920818
92246275 2 21.4177676188 143.3280253294 0.9944125083
494444 2 63.6240941196 162.8046353011 0.3603434651
493858 2 85.7980601548 148.6681956834 0.0878411963
587580 2 55.5041147749 186.8133234921 0.1717454054
397168 2 89.0964955717 141.2712651542 0.4280935843
487171 2 9.5476820798 172.1197989263 0.3913149155
583486 2 8.2741123163 200.0686043346 0.62972981
482977 1 9.4604655243 147.8029326876 0.0737758211
92346808 2 56.148383085 152.2782942442 0.6008171099
486552 2 25.4528792073 176.0852625394 0.4653404934
486162 2 18.513038033 157.9134212964 0.4929035356
92343159 2 13.0881755944 160.6845120861 0.0575753768
584204 2 17.015904783 197.4332871376 0.1593873737
389115 1 24.4226747744 135.9508453837 0.0835447975
92349627 1 83.9517055891 155.8522457977 0.3513621938
92440266 2 17.1189314709 164.1274795131 0.2045830398
92443092 2 36.2271374919 202.2820045295 0.0624717079
92451038 2 92.3973588569 183.9600418667 0.1224969062
493580 2 73.696960598 173.2288073967 0.2473479696
392675 2 43.992842444 138.6323990072 0.2036169251
392661 2 40.0022191097 137.3762943316 0.0808860918
587372 2 57.0630958025 202.1537339175 0.2001254471
396460 1 86.5239923182 139.1314544646 0.2303209961
92257031 2 101.6482959952 145.9994568137 0.3388678222
486801 2 21.0887777654 155.8578961837 0.1403429294
590722 2 74.1214970077 199.393433906 0.1534650469
92354294 2 85.7960293706 178.6403668699 0.1374040018
92440245 2 1.7900029238 183.6091128336 0.1446157806
591201 2 78.1185611578 184.3422146499 0.9419550408
494194 2 77.2252085774 170.6005418097 0.3933272456
92440431 2 32.5007183332 185.9228829615 0.1051569432
92347142 2 40.0576486195 180.0026799693 0.1147688728
490118 2 47.3477332923 179.7525977561 0.0348899833
487353 2 18.3255529152 153.9366134479 0.293232288
494106 2 79.4641696151 168.621477825 0.1705433403
490627 2 50.3130388066 171.458507216 0.1075176312
486906 2 23.2277461956 168.0494344508 0.4837500153
92249583 2 35.0963846432 143.5970052522 0.4504054619
92440454 2 5.2312583173 201.8789088192 0.3952696906
487152 2 9.2937228664 173.8259094551 0.08094204
388817 2 2.3833018903 136.1770610315 0.0341651954
92447697 2 74.1850838755 192.45109468 0.3615753262
92343254 2 1.7041814269 175.4153209301 0.1224551872
92246368 2 24.7198793721 154.4023712742 0.4979521712
587952 2 39.9440585107 201.1421173322 0.9441993159
92342376 2 28.6935376886 172.5347328463 0.1512398839
400096 2 101.352386006 144.4527263321 0.4157376976
594260 2 86.6939902398 202.5971189128 0.5661004261
92349993 2 64.6580415245 168.4488700568 0.0161903555
393313 1 50.7615883737 145.448103351 0.2097901462
92350413 2 73.186579793 152.138233749 0.0087086473
486286 2 6.3651109682 168.5080740309 0.0440648572
486928 2 22.3015973079 176.4649801087 0.0241068204
92444189 1 41.0866034683 207.6418479463 0.0535425579
92544729 2 57.7187495117 206.3634949887 0.6462923396
92447882 1 66.0083563162 205.8198946913 0.290780384
688127 2 75.0605554393 239.0349555612 0.0087450813
92444294 2 26.3948057213 207.118957152 0.1549845294
684658 2 50.5327091516 209.8818549492 0.9620170958
92541234 2 62.5237995555 208.4584836542 0.2647983809
590821 2 75.9287873678 207.3557070755 0.3183333892
92544682 2 78.6881304167 209.5570563799 0.4414858596
590831 2 85.8322477215 207.4180758034 0.5681077743
590994 2 95.1988955863 207.6385406097 0.8740288714
92451395 2 100.0159213148 208.4353623278 0.3707864197
92440767 2 35.3211066498 209.7493573027 0.4751054789
92447942 2 70.9455685696 209.9294394597 0.6072729273
691944 2 84.1426891272 211.0838606431 0.0261912218
92541016 2 33.0775572857 212.3446962998 0.1306387851
687648 2 70.04317772 213.2206151348 0.8581062641
684496 2 42.6772368983 236.4972313622 0.0344621059
92447361 2 85.4571705073 212.9054864921 0.4004443648
788438 2 97.1500267026 241.166305182 0.1201387846
680602 2 9.0172975592 215.8663372422 0.6815533764
684132 2 25.1105595164 216.2484186373 0.1050439252
92544027 1 84.1721949793 215.650420795 0.1410301526
594481 1 89.9238235572 217.2850382735 0.4388228669
684766 2 34.2417475059 219.0264724277 0.3553334206
681249 2 3.6841749415 221.4258048827 0.5206799041
92537805 2 7.3984333122 222.9487943235 0.2298746558
680519 2 22.2119499237 221.1877469619 0.8422286577
92541297 2 41.0623580324 221.6247956091 0.7457501704
684477 2 44.5781983554 222.8998070767 0.8687728182
92548271 2 86.3281042374 223.5291516449 0.6091803384
92447363 2 91.7013560925 221.8919758532 0.1596222325
92631600 2 1.1142821048 225.8111847236 0.0702244137
777635 2 16.0296921618 242.0392421433 0.1187706118
688809 2 57.2864161298 225.2889031568 0.8883684404
92742852 2 92.6806010375 269.6448587407 0.0652875302
92537914 2 20.6284323344 228.1450608318 0.8569283264
680866 2 42.5671345732 227.7465291385 0.4011396902
684275 2 44.6234566177 229.5277209237 0.7849401741
684421 2 46.0821484369 239.5289050382 0.6717628611
92537918 2 14.7407008766 232.2426513177 0.7589916585
688771 2 70.326846331 231.1185499701 0.4038382058
688384 2 82.2045585343 208.0911704851 0.0540215657
92537206 2 14.9822375814 235.2517373267 0.520818554
684574 2 54.6875320017 235.0826470453 0.4388176448
680831 2 23.9584048055 237.3283954128 0.7582131306
680998 2 39.6466530767 235.4040784196 0.7713198108
92540806 2 46.6784752156 235.5334995063 0.9337252824
687826 2 90.0120443532 204.6331150393 0.2851359292
784887 2 72.9667994264 236.1946204971 0.5189111339
92541542 2 41.5689240776 239.4260141796 0.5948167361
688449 2 63.9627902687 223.2170532814 0.3239061141
789135 2 81.8057166584 240.089917679 0.0485512506
92637924 2 49.0044119006 254.9874747965 0.0682086978
684500 2 32.3017333574 249.8409761086 0.0010072277
92545122 2 67.4971723104 241.8906735003 0.2645741089
92641883 2 78.709429795 243.6128562953 0.1038960516
92728428 2 1.6386584158 245.9534091498 0.5314861932
781594 2 38.3871097215 247.0882310641 0.6911614375
777770 1 20.1673388318 248.947612423 0.4371403036
92642104 2 71.6072191812 248.8593511585 0.9140417669
874930 2 4.2130623143 265.6194326998 0.1071872394
92641288 2 73.9962521434 248.4557240032 0.7181404066
92645724 2 97.9405931669 249.5065420706 0.0039491633
92645805 2 96.6818325077 251.2860839857 0.8181239582
784943 2 67.7782537204 243.5195045239 0.014601633
777602 1 3.4968923879 253.4433591972 0.3184768634
781319 2 51.8162602427 253.1359325399 0.8372330709
92543486 2 95.6233087107 218.7866984909 0.0325512219
784968 2 70.3952590057 254.0728095982 0.9025670439
92634393 2 2.3855039672 257.3671729433 0.0303189547
92634995 2 8.519908927 268.5709403065 0.2154256759
784932 2 54.8038674428 243.2316055266 0.0608954619
777639 2 3.9381499221 256.9996444865 0.0193050542
782409 2 28.2918581164 259.5384386175 0.4006947974
92544719 2 96.5693111695 211.750047179 0.4619147844
879136 2 31.02443504 261.882928483 0.0147588425
785182 2 64.3807201511 260.2363612536 0.5048812094
92635021 2 19.8343833582 263.7256657531 0.6753281841
92642192 1 67.5368618325 264.0846683429 0.2419251544
92739120 2 84.1628007785 267.0267252756 0.3233682984
875584 2 23.9816892382 269.07912888 0.6760552262
92734820 2 39.9955262765 269.4307115212 0.2546342766
92742657 2 101.3094482058 268.6428847797 0.4873463255
92634360 2 18.9523479836 255.9778245734 0.1766129359
785327 2 76.4017965069 267.6310439359 0.1424970997
92536985 2 12.4337942243 215.3508544278 0.1110691199
92537613 2 12.2275048504 213.6764729329 0.2828061044
92540586 2 44.7474204996 210.7728719753 0.2908681795
782178 2 39.5147034746 258.8083899527 0.263535148
92537942 2 10.0144141643 240.9766731051 0.2727901983
784958 2 64.0720647492 248.8403593933 0.1938940423
781924 1 31.4548758264 228.4913160524 0.1829925817
785084 2 67.5294133692 259.6118271391 0.2198204836
687754 2 78.4732469292 215.1622085077 0.0208579961
785481 2 84.903104182 256.3729142358 0.2110489207
781332 2 24.8891593498 242.9899909217 0.2625885904
92634904 2 10.5054871907 250.2707816676 0.1960369139
92638245 2 33.3809869498 246.6066103532 0.0048953738
92446776 2 91.4640175912 203.9278099777 0.2831358645
92642087 2 59.4110141895 253.3069392571 0.1369379185
92638385 2 41.1185649983 258.6378053663 0.1390456966
92638340 2 26.506410512 239.7367590378 0.2681270309
92545142 2 71.2051464166 240.0955405255 0.1874713037
788777 2 88.8319638804 253.3221861064 0.1143897484
590949 2 73.4168040808 213.8233669269 0.0076147679
778144 2 16.785726684 266.5709332633 0.056414025
92537698 2 18.526237076 219.3746811204 0.250077371
688768 2 89.7278775623 232.888043452 0.4657139205
92540376 2 58.4252724771 233.5237378773 0.1174730805
92545171 2 87.1000655842 240.7260256219 0.1388683976
882784 2 81.4633780929 269.1276799039 0.1901335129
92641542 1 81.6393515326 256.9889389711 0.0760583315
680556 2 10.5799438411 216.4492280686 0.2343539407
778021 2 13.4450487687 267.2603644705 0.1219857209
92541431 2 42.7238669424 234.8304487623 0.1835229824
785372 2 85.6694029182 266.4218408227 0.2125118922
92537467 2 17.5047229524 222.5219433891 0.1579825252
691248 2 98.6900432544 213.8087760417 0.3095846972
92447795 2 67.078246016 210.6854184777 0.0657751775
92537743 1 27.5291486458 218.9210083179 0.0476635195
777787 2 18.4216011739 251.7225281228 0.5282751365
684155 2 36.8566246571 216.0210544332 0.0123004795
781484 2 36.0803660095 260.6381913843 0.1410145491
687617 2 63.2053535119 226.7062761679 0.2553205788
781411 2 47.2787789417 253.0752982282 0.3475515552
788589 2 99.3945472915 250.2726652146 0.3400737283
92544093 2 69.0217570167 212.3870135794 0.0836338731
875007 2 18.7038822289 270.9360818593 0.3502938855
92443653 2 45.4393886575 204.1274047607 0.1692722243
92742071 2 95.2809495297 264.4335077506 0.29629421
781402 2 37.4547136777 244.2248387231 0.0142007731
591366 1 61.6082414568 205.3750553902 0.1176744947
92645831 2 98.2203954275 266.6651477883 0.0468595828
92540736 2 41.3887693003 215.2114047268 0.4212282294
92547693 2 99.9710400163 212.688565316 0.4510235899
875002 2 10.0475988351 272.5808020672 0.5789836079
92933613 2 72.4902387539 333.5115428483 0.6607010034
92925909 2 3.6976378545 326.7390346409 0.7261346835
972839 2 18.241708664 310.4324745782 0.0488348702
92828493 2 11.4792033928 304.1130770825 0.0371605235
92731385 2 13.0793094654 275.4494638031 0.4406843976
92731963 2 24.1118145404 276.3326448289 0.544183777
92735544 2 31.1809665759 276.5913788171 0.5309530196
92926247 2 6.5233001077 337.5404772506 0.5782650744
883353 2 79.889588353 273.8779889499 0.0688177462
885727 1 93.5545887391 277.0557798556 0.4921483857
878584 2 41.7936289485 280.2831236598 0.5546623626
879094 2 49.3554798663 279.1074566611 0.679949519
92735581 2 52.368731691 278.3774183024 0.7510544532
92742850 2 95.9245909137 280.5173095981 0.6929475979
882050 1 62.379733299 282.1934646022 0.3349425624
882345 2 84.3301019213 279.5328598239 0.3318478283
1065706 2 3.1030932022 284.1543770037 0.7587956509
92735754 2 57.4800728324 280.6381530827 0.0490817118
875277 2 11.9227640141 284.9363289324 0.322577534
882853 2 50.3422988519 285.68866515 0.4428816773
883171 2 70.9789419376 291.1412247855 0.2189476035
92742020 2 100.8125040021 271.4296005118 0.4164045153
781702 2 13.2487662664 285.7450349162 0.170252557
879571 2 39.5841322454 293.0648951421 0.161434749
875039 2 30.8251799545 287.9562238658 0.7522854749
882934 2 76.3362516673 286.3962554624 0.2459102411
92734945 1 34.9347463211 272.5835827992 0.1870371062
972417 2 13.8903983 323.0058922931 0.492126118
976336 2 29.2457156637 290.9772878303 0.2570564401
882132 2 58.139438895 275.2368693042 0.4841858033
1065720 2 0.6582497559 293.2925514625 0.2754125261
875818 2 18.9114517573 294.2720203706 0.621763611
972120 2 32.0655402555 294.1759259695 0.4409029671
879196 1 59.1464863792 278.3727737838 0.2168584215
92731392 2 10.9056021761 282.9281273504 0.2178263453