ITEM: TIMESTEP
0
ITEM: NUMBER OF ATOMS
33
ITEM: BOX BOUNDS abc origin ff pp pp
535.9102 0.0 0.0 -253.8522
0.0 42.81 0.0 0.0
0.0 0.0 42.81 0.0
ITEM: ATOMS id type x y z
4650 2 -253.6998861732 6.9736498108 5.0204509187
3480 2 -253.7696004728 9.9297518682 41.434667365
1906 2 -253.5933331808 2.8694290892 39.6525039469
191 2 -253.2591127189 10.1656285898 32.5064030977
61 2 -253.5800445583 16.2560000329 10.4018483279
4494 1 -253.5003889829 18.2227911338 4.4238295394
3475 2 -253.5040984425 13.2846034173 24.6012399581
5087 2 -253.5844393893 21.3237009965 30.6474655269
2086 2 -253.4569183694 18.7893840496 38.5400993072
3905 2 -253.3794163928 28.1554546714 9.4312518384
1320 2 -253.5636419893 21.7101581698 24.2312320756
4754 1 -253.4321771901 22.7461445388 33.7298420979
2346 2 -253.3077500688 25.449932449 34.7807991445
2898 2 -253.8335477496 23.9701805059 34.6896962147
911 2 -253.2536470768 33.3711725468 5.2589253965
3997 2 -253.3083772382 35.612903878 26.1029751153
1650 2 -253.7543518169 35.4326506581 24.4604896598
1551 2 -253.3146073451 39.8130396605 32.9802954998
95954 1 -253.7891611236 2.4256793771 2.5511716817
97047 2 -253.3935441296 9.4190989271 10.4688879063
95175 2 -253.5932455732 1.4471455828 21.1490391619
96041 2 -253.6141051605 0.0891722955 19.6105206026
98478 1 -253.4944966209 4.5240224549 23.6235961623
98003 2 -253.3069992588 1.224543063 25.1668655112
97746 2 -253.6287778342 0.6332036264 33.394108692
97131 1 -253.2320186066 12.1946336889 19.4411796081
98181 2 -253.3421102372 23.9445896465 0.4113945608
95470 2 -253.6103667152 27.777197328 25.5537933231
95105 2 -253.1662218293 30.2611269178 37.9066580348
96450 2 -253.4701748433 34.7894000349 7.3353896552
97030 2 -253.2281559877 32.2553934544 20.3332160185
98275 2 -253.7592694069 39.1137459853 19.2305374226
94288 2 -253.5233250218 32.8256322285 16.9813052856
