ITEM: TIMESTEP
0
ITEM: NUMBER OF ATOMS
0
ITEM: BOX BOUNDS abc origin ff pp pp
236.245 0.0 0.0 0.0
0.0 428.100013734 0.0 0.0
0.0 0.0 428.100013734 0.0
ITEM: ATOMS id type x y z
